
     Program PWSCF v.6.8 starts on  8Mar2025 at 22:56:27 

     This program is part of the open-source Quantum ESPRESSO suite
     for quantum simulation of materials; please cite
         "P. Giannozzi et al., J. Phys.:Condens. Matter 21 395502 (2009);
         "P. Giannozzi et al., J. Phys.:Condens. Matter 29 465901 (2017);
         "P. Giannozzi et al., J. Chem. Phys. 152 154105 (2020);
          URL http://www.quantum-espresso.org", 
     in publications or presentations arising from this work. More details at
     http://www.quantum-espresso.org/quote

     Parallel version (MPI & OpenMP), running on      40 processor cores
     Number of MPI processes:                40
     Threads/MPI process:                     1

     MPI processes distributed on     1 nodes
     R & G space division:  proc/nbgrp/npool/nimage =      40
     179422 MiB available memory on the printing compute node when the environment starts
 
     Waiting for input...
     Reading input from standard input

     Current dimensions of program PWSCF are:
     Max number of different atomic species (ntypx) = 10
     Max number of k-points (npk) =  40000
     Max angular momentum in pseudopotentials (lmaxx) =  4

     gamma-point specific algorithms are used
     Found symmetry operation: I + (  0.0000  0.0000  0.3333)
     This is a supercell, fractional translations are disabled

     Subspace diagonalization in iterative solution of the eigenvalue problem:
     one sub-group per band group will be used
     scalapack distributed-memory algorithm (size of sub-group:  6*  6 procs)

 
     Parallelization info
     --------------------
     sticks:   dense  smooth     PW     G-vecs:    dense   smooth      PW
     Min         106      52     11                 4468     1572     191
     Max         108      54     14                 4478     1588     202
     Sum        4311    2143    541               178921    63251    7935
 
     Using Slab Decomposition
 


     bravais-lattice index     =            0
     lattice parameter (alat)  =      15.4779  a.u.
     unit-cell volume          =    2854.3738 (a.u.)^3
     number of atoms/cell      =           27
     number of atomic types    =            1
     number of electrons       =       378.00
     number of Kohn-Sham states=          227
     kinetic-energy cutoff     =      30.0000  Ry
     charge density cutoff     =     240.0000  Ry
     scf convergence threshold =      1.0E-06
     mixing beta               =       0.1500
     number of iterations used =            8  plain     mixing
     energy convergence thresh.=      0.0E+00
     force convergence thresh. =      0.0E+00
     press convergence thresh. =      0.0E+00
     Exchange-correlation= SLA  PW   PSX  PSC
                           (   1   4  10   8   0   0   0)
     nstep                     =         7500


     celldm(1)=  15.477860  celldm(2)=   0.000000  celldm(3)=   0.000000
     celldm(4)=   0.000000  celldm(5)=   0.000000  celldm(6)=   0.000000

     crystal axes: (cart. coord. in units of alat)
               a(1) = (   0.577350   0.577350   0.577350 )  
               a(2) = (   0.577350  -0.577350  -0.577350 )  
               a(3) = (  -0.577350   0.577350  -0.577350 )  

     reciprocal axes: (cart. coord. in units 2 pi/alat)
               b(1) = (  0.866025  0.866025  0.000000 )  
               b(2) = (  0.866025  0.000000 -0.866025 )  
               b(3) = (  0.000000  0.866025 -0.866025 )  


     PseudoPot. # 1 for W  read from file:
     //scratch/21mt61r55/mlip/mlip/w_pbesol_v1.2.uspp.F.UPF
     MD5 check sum: 78d6efd6ad550bd5be97e9711072ceda
     Pseudo is Ultrasoft + core correction, Zval = 14.0
     Generated by new atomic code, or converted to UPF format
     Using radial grid of  923 points,  8 beta functions with: 
                l(1) =   0
                l(2) =   0
                l(3) =   0
                l(4) =   1
                l(5) =   1
                l(6) =   2
                l(7) =   2
                l(8) =   3
     Q(r) pseudized with  6 coefficients,  rinner =    1.350   1.350   1.350
                                                       1.350   1.350   1.350
                                                       1.350

     atomic species   valence    mass     pseudopotential
        W             14.00   183.84000     W ( 1.00)

      cell mass = 377.19445 AMU 

     No symmetry found


                                    s                        frac. trans.

      isym =  1     identity                                     

 cryst.   s( 1) = (     1          0          0      )
                  (     0          1          0      )
                  (     0          0          1      )

 cart.    s( 1) = (  1.0000000  0.0000000  0.0000000 )
                  (  0.0000000  1.0000000  0.0000000 )
                  (  0.0000000  0.0000000  1.0000000 )


   Cartesian axes

     site n.     atom                  positions (alat units)
         1           W   tau(   1) = (   0.0000000   0.0000000   0.0000000  )
         2           W   tau(   2) = (  -0.1924501   0.1924501  -0.1924501  )
         3           W   tau(   3) = (  -0.3849002   0.3849002  -0.3849002  )
         4           W   tau(   4) = (   0.1924501  -0.1924501  -0.1924501  )
         5           W   tau(   5) = (   0.0000000   0.0000000  -0.3849002  )
         6           W   tau(   6) = (  -0.1924501   0.1924501  -0.5773503  )
         7           W   tau(   7) = (   0.3849002  -0.3849002  -0.3849002  )
         8           W   tau(   8) = (   0.1924501  -0.1924501  -0.5773503  )
         9           W   tau(   9) = (   0.0000000   0.0000000  -0.7698004  )
        10           W   tau(  10) = (   0.1924501   0.1924501   0.1924501  )
        11           W   tau(  11) = (   0.0000000   0.3849002   0.0000000  )
        12           W   tau(  12) = (  -0.1924501   0.5773503  -0.1924501  )
        13           W   tau(  13) = (   0.3849002   0.0000000   0.0000000  )
        14           W   tau(  14) = (   0.1924501   0.1924501  -0.1924501  )
        15           W   tau(  15) = (  -0.0000000   0.3849002  -0.3849002  )
        16           W   tau(  16) = (   0.5773503  -0.1924501  -0.1924501  )
        17           W   tau(  17) = (   0.3849002  -0.0000000  -0.3849002  )
        18           W   tau(  18) = (   0.1924501   0.1924501  -0.5773503  )
        19           W   tau(  19) = (   0.3849002   0.3849002   0.3849002  )
        20           W   tau(  20) = (   0.1924501   0.5773503   0.1924501  )
        21           W   tau(  21) = (   0.0000000   0.7698004   0.0000000  )
        22           W   tau(  22) = (   0.5773503   0.1924501   0.1924501  )
        23           W   tau(  23) = (   0.3849002   0.3849002   0.0000000  )
        24           W   tau(  24) = (   0.1924501   0.5773503  -0.1924501  )
        25           W   tau(  25) = (   0.7698004   0.0000000   0.0000000  )
        26           W   tau(  26) = (   0.5773503   0.1924501  -0.1924501  )
        27           W   tau(  27) = (   0.3849002   0.3849002  -0.3849002  )

   Crystallographic axes

     site n.     atom                  positions (cryst. coord.)
         1           W   tau(   1) = (  0.0000000  0.0000000  0.0000000  )
         2           W   tau(   2) = (  0.0000000  0.0000000  0.3333333  )
         3           W   tau(   3) = (  0.0000000  0.0000000  0.6666667  )
         4           W   tau(   4) = (  0.0000000  0.3333333  0.0000000  )
         5           W   tau(   5) = (  0.0000000  0.3333333  0.3333333  )
         6           W   tau(   6) = (  0.0000000  0.3333333  0.6666667  )
         7           W   tau(   7) = (  0.0000000  0.6666667  0.0000000  )
         8           W   tau(   8) = (  0.0000000  0.6666667  0.3333333  )
         9           W   tau(   9) = (  0.0000000  0.6666667  0.6666667  )
        10           W   tau(  10) = (  0.3333333  0.0000000  0.0000000  )
        11           W   tau(  11) = (  0.3333333  0.0000000  0.3333333  )
        12           W   tau(  12) = (  0.3333333  0.0000000  0.6666667  )
        13           W   tau(  13) = (  0.3333333  0.3333333  0.0000000  )
        14           W   tau(  14) = (  0.3333333  0.3333333  0.3333333  )
        15           W   tau(  15) = (  0.3333333  0.3333333  0.6666667  )
        16           W   tau(  16) = (  0.3333333  0.6666667  0.0000000  )
        17           W   tau(  17) = (  0.3333333  0.6666667  0.3333333  )
        18           W   tau(  18) = (  0.3333333  0.6666667  0.6666667  )
        19           W   tau(  19) = (  0.6666667  0.0000000  0.0000000  )
        20           W   tau(  20) = (  0.6666667  0.0000000  0.3333333  )
        21           W   tau(  21) = (  0.6666667  0.0000000  0.6666667  )
        22           W   tau(  22) = (  0.6666667  0.3333333  0.0000000  )
        23           W   tau(  23) = (  0.6666667  0.3333333  0.3333333  )
        24           W   tau(  24) = (  0.6666667  0.3333333  0.6666667  )
        25           W   tau(  25) = (  0.6666667  0.6666667  0.0000000  )
        26           W   tau(  26) = (  0.6666667  0.6666667  0.3333333  )
        27           W   tau(  27) = (  0.6666667  0.6666667  0.6666667  )

     number of k points=     1  Marzari-Vanderbilt smearing, width (Ry)=  0.0200
                       cart. coord. in units 2pi/alat
        k(    1) = (   0.0000000   0.0000000   0.0000000), wk =   2.0000000

                       cryst. coord.
        k(    1) = (   0.0000000   0.0000000   0.0000000), wk =   2.0000000

     Dense  grid:    89461 G-vectors     FFT dimensions: (  80,  80,  80)

     Smooth grid:    31626 G-vectors     FFT dimensions: (  54,  54,  54)

     Dynamical RAM for                 wfc:       0.34 MB

     Dynamical RAM for     wfc (w. buffer):       0.34 MB

     Dynamical RAM for           str. fact:       0.03 MB

     Dynamical RAM for           local pot:       0.00 MB

     Dynamical RAM for          nlocal pot:       1.06 MB

     Dynamical RAM for                qrad:       5.97 MB

     Dynamical RAM for          rho,v,vnew:       0.40 MB

     Dynamical RAM for               rhoin:       0.13 MB

     Dynamical RAM for            rho*nmix:       0.55 MB

     Dynamical RAM for           G-vectors:       0.13 MB

     Dynamical RAM for          h,s,v(r/c):       0.13 MB

     Dynamical RAM for          <psi|beta>:       1.22 MB

     Dynamical RAM for                 psi:       0.69 MB

     Dynamical RAM for                hpsi:       0.69 MB

     Dynamical RAM for                spsi:       0.69 MB

     Dynamical RAM for      wfcinit/wfcrot:       3.88 MB

     Dynamical RAM for           addusdens:      13.82 MB

     Dynamical RAM for          addusforce:      15.83 MB

     Dynamical RAM for         addusstress:      13.82 MB

     Estimated static dynamical RAM per process >       8.63 MB

     Estimated max dynamical RAM per process >      25.01 MB

     Estimated total dynamical RAM >    1000.25 MB

     Initial potential from superposition of free atoms

     starting charge  375.29160, renormalised to  378.00000

     negative rho (up, down):  1.676E+00 0.000E+00
     Starting wfcs are  351 randomized atomic wfcs

     total cpu time spent up to now is        1.0 secs

     Self-consistent Calculation

     iteration #  1     ecut=    30.00 Ry     beta= 0.15
     Davidson diagonalization with overlap

---- Real-time Memory Report at c_bands before calling an iterative solver
           217 MiB given to the printing process from OS
             0 MiB allocation reported by mallinfo(arena+hblkhd)
        177904 MiB available memory on the node where the printing process lives
------------------
     ethr =  1.00E-02,  avg # of iterations =  2.0

     Threshold (ethr) on eigenvalues was too large:
     Diagonalizing with lowered threshold

     Davidson diagonalization with overlap

---- Real-time Memory Report at c_bands before calling an iterative solver
           243 MiB given to the printing process from OS
             0 MiB allocation reported by mallinfo(arena+hblkhd)
        177674 MiB available memory on the node where the printing process lives
------------------
     ethr =  3.99E-04,  avg # of iterations =  1.0

     negative rho (up, down):  1.669E+00 0.000E+00

     total cpu time spent up to now is        1.3 secs

     total energy              =   -4293.43938107 Ry
     estimated scf accuracy    <       1.60932866 Ry

     iteration #  2     ecut=    30.00 Ry     beta= 0.15
     Davidson diagonalization with overlap

---- Real-time Memory Report at c_bands before calling an iterative solver
           247 MiB given to the printing process from OS
             0 MiB allocation reported by mallinfo(arena+hblkhd)
        177680 MiB available memory on the node where the printing process lives
------------------
     ethr =  4.26E-04,  avg # of iterations =  1.0

     negative rho (up, down):  1.649E+00 0.000E+00

     total cpu time spent up to now is        1.5 secs

     total energy              =   -4292.82976476 Ry
     estimated scf accuracy    <       0.99716117 Ry

     iteration #  3     ecut=    30.00 Ry     beta= 0.15
     Davidson diagonalization with overlap

---- Real-time Memory Report at c_bands before calling an iterative solver
           251 MiB given to the printing process from OS
             0 MiB allocation reported by mallinfo(arena+hblkhd)
        177625 MiB available memory on the node where the printing process lives
------------------
     ethr =  2.64E-04,  avg # of iterations =  2.0

     negative rho (up, down):  1.663E+00 0.000E+00

     total cpu time spent up to now is        1.8 secs

     total energy              =   -4293.04146686 Ry
     estimated scf accuracy    <       0.02893236 Ry

     iteration #  4     ecut=    30.00 Ry     beta= 0.15
     Davidson diagonalization with overlap

---- Real-time Memory Report at c_bands before calling an iterative solver
           255 MiB given to the printing process from OS
             0 MiB allocation reported by mallinfo(arena+hblkhd)
        177603 MiB available memory on the node where the printing process lives
------------------
     ethr =  7.65E-06,  avg # of iterations =  2.0

     negative rho (up, down):  1.667E+00 0.000E+00

     total cpu time spent up to now is        2.0 secs

     total energy              =   -4293.04915212 Ry
     estimated scf accuracy    <       0.06881560 Ry

     iteration #  5     ecut=    30.00 Ry     beta= 0.15
     Davidson diagonalization with overlap

---- Real-time Memory Report at c_bands before calling an iterative solver
           258 MiB given to the printing process from OS
             0 MiB allocation reported by mallinfo(arena+hblkhd)
        177589 MiB available memory on the node where the printing process lives
------------------
     ethr =  7.65E-06,  avg # of iterations =  2.0

     negative rho (up, down):  1.662E+00 0.000E+00

     total cpu time spent up to now is        2.2 secs

     total energy              =   -4293.03443417 Ry
     estimated scf accuracy    <       0.02288136 Ry

     iteration #  6     ecut=    30.00 Ry     beta= 0.15
     Davidson diagonalization with overlap

---- Real-time Memory Report at c_bands before calling an iterative solver
           259 MiB given to the printing process from OS
             0 MiB allocation reported by mallinfo(arena+hblkhd)
        177574 MiB available memory on the node where the printing process lives
------------------
     ethr =  6.05E-06,  avg # of iterations =  2.0

     negative rho (up, down):  1.662E+00 0.000E+00

     total cpu time spent up to now is        2.5 secs

     total energy              =   -4293.03985947 Ry
     estimated scf accuracy    <       0.00016245 Ry

     iteration #  7     ecut=    30.00 Ry     beta= 0.15
     Davidson diagonalization with overlap

---- Real-time Memory Report at c_bands before calling an iterative solver
           260 MiB given to the printing process from OS
             0 MiB allocation reported by mallinfo(arena+hblkhd)
        177561 MiB available memory on the node where the printing process lives
------------------
     ethr =  4.30E-08,  avg # of iterations = 11.0

     negative rho (up, down):  1.661E+00 0.000E+00

     total cpu time spent up to now is        2.9 secs

     total energy              =   -4293.03986184 Ry
     estimated scf accuracy    <       0.00008945 Ry

     iteration #  8     ecut=    30.00 Ry     beta= 0.15
     Davidson diagonalization with overlap

---- Real-time Memory Report at c_bands before calling an iterative solver
           265 MiB given to the printing process from OS
             0 MiB allocation reported by mallinfo(arena+hblkhd)
        177508 MiB available memory on the node where the printing process lives
------------------
     ethr =  2.37E-08,  avg # of iterations =  2.0

     negative rho (up, down):  1.660E+00 0.000E+00

     total cpu time spent up to now is        3.1 secs

     total energy              =   -4293.03985525 Ry
     estimated scf accuracy    <       0.00002862 Ry

     iteration #  9     ecut=    30.00 Ry     beta= 0.15
     Davidson diagonalization with overlap

---- Real-time Memory Report at c_bands before calling an iterative solver
           266 MiB given to the printing process from OS
             0 MiB allocation reported by mallinfo(arena+hblkhd)
        177507 MiB available memory on the node where the printing process lives
------------------
     ethr =  7.57E-09,  avg # of iterations =  2.0

     negative rho (up, down):  1.659E+00 0.000E+00

     total cpu time spent up to now is        3.3 secs

     total energy              =   -4293.03985617 Ry
     estimated scf accuracy    <       0.00000479 Ry

     iteration # 10     ecut=    30.00 Ry     beta= 0.15
     Davidson diagonalization with overlap

---- Real-time Memory Report at c_bands before calling an iterative solver
           267 MiB given to the printing process from OS
             0 MiB allocation reported by mallinfo(arena+hblkhd)
        177482 MiB available memory on the node where the printing process lives
------------------
     ethr =  1.27E-09,  avg # of iterations =  2.0

     negative rho (up, down):  1.658E+00 0.000E+00

     total cpu time spent up to now is        3.5 secs

     End of self-consistent calculation

          k = 0.0000 0.0000 0.0000 (  3968 PWs)   bands (ev):

   -51.4197 -51.3133 -51.3132 -51.3132 -51.3131 -51.3131 -51.3131 -51.3130
   -51.3130 -51.3130 -51.3130 -51.3130 -51.3129 -51.2595 -51.2594 -51.2594
   -51.2593 -51.2593 -51.2593 -51.2593 -51.2592 -51.2272 -51.2272 -51.2272
   -51.2271 -51.2271 -51.2270 -15.9839 -15.9839 -15.9838 -15.9838 -15.9838
   -15.9838 -15.9838 -15.9838 -15.9837 -15.9837 -15.9837 -15.9837 -15.8926
   -15.8926 -15.8926 -15.8925 -15.8925 -15.8925 -15.8925 -15.8925 -15.8925
   -15.8925 -15.8924 -15.8924 -15.8924 -15.8924 -15.8924 -15.8924 -15.8483
   -15.8482 -15.8482 -15.8482 -15.8482 -15.8482 -15.6571 -15.6571 -15.6570
   -15.6570 -15.6570 -15.6570 -15.6570 -15.6570 -15.6570 -15.6570 -15.6569
   -15.6569 -15.2886 -15.2886 -15.2886 -15.2886 -15.2886 -15.2886 -15.2886
   -15.2886 -15.2886 -15.2885 -15.2885 -15.2885 -15.1304 -15.1304 -15.1304
   -15.1304 -15.1304 -15.1304 -15.1303 -15.1303 -14.9653 -14.9653 -14.9653
   -14.9652 -14.9652 -14.9652 -14.9652 -14.9652 -14.9652 -14.9651 -14.9651
   -14.9651 -14.9602 -14.9602 -14.9602  13.0943  16.3183  16.3183  16.3184
    16.3184  16.3184  16.3184  16.3184  16.3184  16.3184  16.3184  16.3184
    16.3185  18.2354  18.2354  18.2355  18.2355  18.2355  18.2355  18.2459
    18.2459  18.2460  18.2460  18.2460  18.2460  18.3493  18.3493  18.3493
    18.3493  18.3493  18.3493  18.3493  18.3493  19.6231  19.6231  19.6231
    19.6232  19.6232  19.6232  19.6232  19.6232  19.6232  19.6232  19.6233
    19.6233  20.0780  20.0780  20.0780  20.0780  20.0780  20.0781  20.0781
    20.0781  20.0781  20.0781  20.0781  20.0781  20.0781  20.0781  20.0781
    20.0781  21.3219  21.3219  21.3219  21.3219  21.3219  21.3219  21.3219
    21.3219  21.3219  21.3219  21.3219  21.3219  21.4940  21.4940  21.4940
    23.7000  23.7000  23.7000  23.7001  23.7001  23.7001  23.7001  23.7001
    23.7001  23.7001  23.7001  23.7001  24.7760  24.7760  24.7760  24.7760
    24.7760  24.7760  24.7760  24.7760  24.7760  24.7761  24.7761  24.7761
    25.0260  25.0260  25.4887  25.4887  25.4888  25.4889  25.4889  25.4889
    25.4890  25.4890  25.4891  25.4893  25.4893  25.4895  25.6070  25.6070
    25.6070  25.6070  25.6071

     occupation numbers 
     1.0000   1.0000   1.0000   1.0000   1.0000   1.0000   1.0000   1.0000
     1.0000   1.0000   1.0000   1.0000   1.0000   1.0000   1.0000   1.0000
     1.0000   1.0000   1.0000   1.0000   1.0000   1.0000   1.0000   1.0000
     1.0000   1.0000   1.0000   1.0000   1.0000   1.0000   1.0000   1.0000
     1.0000   1.0000   1.0000   1.0000   1.0000   1.0000   1.0000   1.0000
     1.0000   1.0000   1.0000   1.0000   1.0000   1.0000   1.0000   1.0000
     1.0000   1.0000   1.0000   1.0000   1.0000   1.0000   1.0000   1.0000
     1.0000   1.0000   1.0000   1.0000   1.0000   1.0000   1.0000   1.0000
     1.0000   1.0000   1.0000   1.0000   1.0000   1.0000   1.0000   1.0000
     1.0000   1.0000   1.0000   1.0000   1.0000   1.0000   1.0000   1.0000
     1.0000   1.0000   1.0000   1.0000   1.0000   1.0000   1.0000   1.0000
     1.0000   1.0000   1.0000   1.0000   1.0000   1.0000   1.0000   1.0000
     1.0000   1.0000   1.0000   1.0000   1.0000   1.0000   1.0000   1.0000
     1.0000   1.0000   1.0000   1.0000   1.0000   1.0000   1.0000   1.0000
     1.0000   1.0000   1.0000   1.0000   1.0000   1.0000   1.0000   1.0000
     1.0000   1.0000   1.0000   1.0000   1.0000   1.0000   1.0000   1.0000
     1.0000   1.0000   1.0000   1.0000   1.0000   1.0000   1.0000   1.0000
     1.0000   1.0000   1.0000   1.0000   1.0000   1.0000   1.0000   1.0000
     1.0000   1.0000   1.0000   1.0000   1.0000   1.0000   1.0000   1.0000
     1.0000   1.0000   1.0000   1.0000   1.0000   1.0000   1.0000   1.0000
     1.0000   1.0000   1.0000   1.0000   1.0000   1.0000   1.0000   1.0000
     1.0000   1.0000   1.0000   1.0000   1.0000   1.0000   1.0000   1.0000
     1.0000   1.0000   1.0000   1.0000   1.0000   1.0000   1.0000   1.0000
     0.4168   0.4168   0.4168   0.4167   0.4167   0.4167   0.4167   0.4166
     0.4166   0.4166   0.4166   0.4165   0.0000   0.0000   0.0000   0.0000
     0.0000   0.0000   0.0000   0.0000   0.0000   0.0000   0.0000   0.0000
     0.0000   0.0000   0.0000   0.0000   0.0000   0.0000   0.0000   0.0000
     0.0000   0.0000   0.0000   0.0000   0.0000   0.0000   0.0000   0.0000
     0.0000   0.0000   0.0000

     the Fermi energy is    23.7064 ev

!    total energy              =   -4293.03985639 Ry
     estimated scf accuracy    <       0.00000075 Ry
     smearing contrib. (-TS)   =      -0.08203784 Ry
     internal energy E=F+TS    =   -4292.95781855 Ry

     convergence has been achieved in  10 iterations

     negative rho (up, down):  1.658E+00 0.000E+00

     Forces acting on atoms (cartesian axes, Ry/au):

     atom    1 type  1   force =    -0.00000296   -0.00008888    0.00003267
     atom    2 type  1   force =    -0.00002758   -0.00000079   -0.00000109
     atom    3 type  1   force =    -0.00007432    0.00002461   -0.00000764
     atom    4 type  1   force =    -0.00004114    0.00002460    0.00001184
     atom    5 type  1   force =     0.00004243    0.00000623   -0.00003260
     atom    6 type  1   force =     0.00000466   -0.00003021    0.00000262
     atom    7 type  1   force =     0.00003085    0.00000074    0.00001235
     atom    8 type  1   force =    -0.00001865    0.00003833   -0.00002242
     atom    9 type  1   force =     0.00000071   -0.00004136   -0.00001878
     atom   10 type  1   force =    -0.00000464   -0.00002083    0.00006086
     atom   11 type  1   force =    -0.00002167    0.00002224    0.00004880
     atom   12 type  1   force =    -0.00004881    0.00006248    0.00002299
     atom   13 type  1   force =    -0.00004813    0.00000864   -0.00000112
     atom   14 type  1   force =     0.00005718   -0.00000311   -0.00007515
     atom   15 type  1   force =     0.00003666   -0.00000363    0.00002710
     atom   16 type  1   force =     0.00000007   -0.00003152   -0.00004277
     atom   17 type  1   force =     0.00001889    0.00006242   -0.00003799
     atom   18 type  1   force =     0.00008362   -0.00002902    0.00000012
     atom   19 type  1   force =     0.00000907   -0.00005545    0.00007454
     atom   20 type  1   force =    -0.00002564   -0.00000036   -0.00000998
     atom   21 type  1   force =    -0.00008194    0.00005584    0.00003724
     atom   22 type  1   force =    -0.00002137    0.00001000    0.00003429
     atom   23 type  1   force =     0.00004035    0.00002274   -0.00004904
     atom   24 type  1   force =     0.00002851   -0.00001296   -0.00001681
     atom   25 type  1   force =     0.00004166   -0.00003612    0.00000993
     atom   26 type  1   force =    -0.00002925    0.00006886   -0.00004683
     atom   27 type  1   force =     0.00005144   -0.00005348   -0.00001316
     The non-local contrib.  to forces
     atom    1 type  1   force =    -0.00001160   -0.00010614    0.00002799
     atom    2 type  1   force =    -0.00003464    0.00001741   -0.00001274
     atom    3 type  1   force =    -0.00006979    0.00003262   -0.00001785
     atom    4 type  1   force =    -0.00003010    0.00004121    0.00000466
     atom    5 type  1   force =     0.00004310    0.00003732   -0.00004619
     atom    6 type  1   force =     0.00001198   -0.00005133    0.00001771
     atom    7 type  1   force =     0.00004610    0.00000478    0.00001873
     atom    8 type  1   force =    -0.00001526    0.00002605   -0.00003026
     atom    9 type  1   force =    -0.00002002   -0.00004423   -0.00002388
     atom   10 type  1   force =    -0.00002044   -0.00001041    0.00006788
     atom   11 type  1   force =    -0.00002439    0.00001594    0.00007766
     atom   12 type  1   force =    -0.00005175    0.00006630    0.00001031
     atom   13 type  1   force =    -0.00005766   -0.00000588    0.00000573
     atom   14 type  1   force =     0.00006405    0.00001440   -0.00010215
     atom   15 type  1   force =     0.00003976   -0.00000865    0.00004247
     atom   16 type  1   force =    -0.00000813   -0.00003957   -0.00005514
     atom   17 type  1   force =     0.00002816    0.00006494   -0.00005221
     atom   18 type  1   force =     0.00008970   -0.00003511    0.00000584
     atom   19 type  1   force =    -0.00000706   -0.00005703    0.00010122
     atom   20 type  1   force =    -0.00002017   -0.00001814   -0.00002595
     atom   21 type  1   force =    -0.00009043    0.00006226    0.00004750
     atom   22 type  1   force =    -0.00002837   -0.00001014    0.00003314
     atom   23 type  1   force =     0.00003471    0.00005439   -0.00006739
     atom   24 type  1   force =     0.00003320   -0.00002094   -0.00002728
     atom   25 type  1   force =     0.00005561   -0.00004059    0.00000503
     atom   26 type  1   force =    -0.00002934    0.00005580   -0.00004623
     atom   27 type  1   force =     0.00003982   -0.00005823    0.00000110
     The ionic contribution  to forces
     atom    1 type  1   force =    -0.00000000   -0.00000000    0.00000000
     atom    2 type  1   force =    -0.00000012    0.00000125   -0.00000125
     atom    3 type  1   force =     0.00000012   -0.00000125    0.00000125
     atom    4 type  1   force =     0.00000125   -0.00000012   -0.00000125
     atom    5 type  1   force =     0.00000112    0.00000112   -0.00000249
     atom    6 type  1   force =     0.00000137   -0.00000137   -0.00000000
     atom    7 type  1   force =    -0.00000125    0.00000012    0.00000125
     atom    8 type  1   force =    -0.00000137    0.00000137    0.00000000
     atom    9 type  1   force =    -0.00000112   -0.00000112    0.00000249
     atom   10 type  1   force =     0.00000125    0.00000125    0.00000012
     atom   11 type  1   force =     0.00000112    0.00000249   -0.00000112
     atom   12 type  1   force =     0.00000137    0.00000000    0.00000137
     atom   13 type  1   force =     0.00000249    0.00000112   -0.00000112
     atom   14 type  1   force =     0.00000237    0.00000237   -0.00000237
     atom   15 type  1   force =     0.00000262   -0.00000012    0.00000012
     atom   16 type  1   force =    -0.00000000    0.00000137    0.00000137
     atom   17 type  1   force =    -0.00000012    0.00000262    0.00000012
     atom   18 type  1   force =     0.00000012    0.00000012    0.00000262
     atom   19 type  1   force =    -0.00000125   -0.00000125   -0.00000012
     atom   20 type  1   force =    -0.00000137   -0.00000000   -0.00000137
     atom   21 type  1   force =    -0.00000112   -0.00000249    0.00000112
     atom   22 type  1   force =    -0.00000000   -0.00000137   -0.00000137
     atom   23 type  1   force =    -0.00000012   -0.00000012   -0.00000262
     atom   24 type  1   force =     0.00000012   -0.00000262   -0.00000012
     atom   25 type  1   force =    -0.00000249   -0.00000112    0.00000112
     atom   26 type  1   force =    -0.00000262    0.00000012   -0.00000012
     atom   27 type  1   force =    -0.00000237   -0.00000237    0.00000237
     The local contribution  to forces
     atom    1 type  1   force =    -0.00001737   -0.00047466    0.00017867
     atom    2 type  1   force =    -0.00010120    0.00003469    0.00002783
     atom    3 type  1   force =    -0.00043061    0.00016660    0.00002268
     atom    4 type  1   force =    -0.00018223    0.00013272   -0.00000087
     atom    5 type  1   force =     0.00029444   -0.00006998   -0.00013648
     atom    6 type  1   force =     0.00000660   -0.00010292   -0.00008384
     atom    7 type  1   force =     0.00012217   -0.00001141    0.00010658
     atom    8 type  1   force =    -0.00011105    0.00027746   -0.00008989
     atom    9 type  1   force =     0.00006658   -0.00024859   -0.00010122
     atom   10 type  1   force =    -0.00001482   -0.00014130    0.00030053
     atom   11 type  1   force =    -0.00013875    0.00018738    0.00020756
     atom   12 type  1   force =    -0.00022048    0.00030598    0.00017556
     atom   13 type  1   force =    -0.00016465    0.00004624   -0.00005420
     atom   14 type  1   force =     0.00030550   -0.00003916   -0.00034020
     atom   15 type  1   force =     0.00015876   -0.00001990    0.00007142
     atom   16 type  1   force =     0.00000836   -0.00009714   -0.00020076
     atom   17 type  1   force =    -0.00001275    0.00028962   -0.00017153
     atom   18 type  1   force =     0.00043719   -0.00016600    0.00001361
     atom   19 type  1   force =     0.00010705   -0.00031998    0.00035676
     atom   20 type  1   force =    -0.00019072    0.00001977   -0.00004267
     atom   21 type  1   force =    -0.00043630    0.00023714    0.00016885
     atom   22 type  1   force =    -0.00011107    0.00011477    0.00017878
     atom   23 type  1   force =     0.00021456    0.00005340   -0.00023564
     atom   24 type  1   force =     0.00013948   -0.00005229   -0.00008269
     atom   25 type  1   force =     0.00017207   -0.00016667    0.00004173
     atom   26 type  1   force =    -0.00020363    0.00030105   -0.00028887
     atom   27 type  1   force =     0.00028008   -0.00024755   -0.00005196
     The core correction contribution to forces
     atom    1 type  1   force =     0.00000006   -0.00000474   -0.00000018
     atom    2 type  1   force =    -0.00000309    0.00000077   -0.00000184
     atom    3 type  1   force =    -0.00000192   -0.00000008   -0.00000154
     atom    4 type  1   force =    -0.00000177    0.00000147    0.00000213
     atom    5 type  1   force =    -0.00000051    0.00000342   -0.00000354
     atom    6 type  1   force =     0.00000145   -0.00000425    0.00000393
     atom    7 type  1   force =     0.00000244    0.00000111   -0.00000003
     atom    8 type  1   force =     0.00000032   -0.00000163   -0.00000082
     atom    9 type  1   force =    -0.00000269   -0.00000085   -0.00000035
     atom   10 type  1   force =    -0.00000102   -0.00000142    0.00000227
     atom   11 type  1   force =     0.00000037   -0.00000181    0.00000467
     atom   12 type  1   force =    -0.00000308    0.00000239   -0.00000118
     atom   13 type  1   force =    -0.00000479   -0.00000124    0.00000079
     atom   14 type  1   force =     0.00000321    0.00000021   -0.00000551
     atom   15 type  1   force =     0.00000174   -0.00000071    0.00000338
     atom   16 type  1   force =    -0.00000078   -0.00000334   -0.00000173
     atom   17 type  1   force =     0.00000286    0.00000371   -0.00000180
     atom   18 type  1   force =     0.00000351   -0.00000253    0.00000032
     atom   19 type  1   force =    -0.00000116   -0.00000127    0.00000609
     atom   20 type  1   force =    -0.00000030   -0.00000188   -0.00000144
     atom   21 type  1   force =    -0.00000328    0.00000309    0.00000190
     atom   22 type  1   force =     0.00000056   -0.00000306    0.00000094
     atom   23 type  1   force =     0.00000100    0.00000371   -0.00000397
     atom   24 type  1   force =     0.00000043   -0.00000030   -0.00000106
     atom   25 type  1   force =     0.00000332   -0.00000273    0.00000014
     atom   26 type  1   force =    -0.00000032    0.00000294    0.00000034
     atom   27 type  1   force =     0.00000074   -0.00000442   -0.00000005
     The Hubbard contrib.    to forces
     atom    1 type  1   force =     0.00000000    0.00000000    0.00000000
     atom    2 type  1   force =     0.00000000    0.00000000    0.00000000
     atom    3 type  1   force =     0.00000000    0.00000000    0.00000000
     atom    4 type  1   force =     0.00000000    0.00000000    0.00000000
     atom    5 type  1   force =     0.00000000    0.00000000    0.00000000
     atom    6 type  1   force =     0.00000000    0.00000000    0.00000000
     atom    7 type  1   force =     0.00000000    0.00000000    0.00000000
     atom    8 type  1   force =     0.00000000    0.00000000    0.00000000
     atom    9 type  1   force =     0.00000000    0.00000000    0.00000000
     atom   10 type  1   force =     0.00000000    0.00000000    0.00000000
     atom   11 type  1   force =     0.00000000    0.00000000    0.00000000
     atom   12 type  1   force =     0.00000000    0.00000000    0.00000000
     atom   13 type  1   force =     0.00000000    0.00000000    0.00000000
     atom   14 type  1   force =     0.00000000    0.00000000    0.00000000
     atom   15 type  1   force =     0.00000000    0.00000000    0.00000000
     atom   16 type  1   force =     0.00000000    0.00000000    0.00000000
     atom   17 type  1   force =     0.00000000    0.00000000    0.00000000
     atom   18 type  1   force =     0.00000000    0.00000000    0.00000000
     atom   19 type  1   force =     0.00000000    0.00000000    0.00000000
     atom   20 type  1   force =     0.00000000    0.00000000    0.00000000
     atom   21 type  1   force =     0.00000000    0.00000000    0.00000000
     atom   22 type  1   force =     0.00000000    0.00000000    0.00000000
     atom   23 type  1   force =     0.00000000    0.00000000    0.00000000
     atom   24 type  1   force =     0.00000000    0.00000000    0.00000000
     atom   25 type  1   force =     0.00000000    0.00000000    0.00000000
     atom   26 type  1   force =     0.00000000    0.00000000    0.00000000
     atom   27 type  1   force =     0.00000000    0.00000000    0.00000000
     The SCF correction term to forces
     atom    1 type  1   force =     0.00002509    0.00049604   -0.00017434
     atom    2 type  1   force =     0.00011061   -0.00005553   -0.00001364
     atom    3 type  1   force =     0.00042701   -0.00017391   -0.00001272
     atom    4 type  1   force =     0.00017085   -0.00015131    0.00000662
     atom    5 type  1   force =    -0.00029659    0.00003371    0.00015555
     atom    6 type  1   force =    -0.00001761    0.00012904    0.00006428
     atom    7 type  1   force =    -0.00013948    0.00000551   -0.00011472
     atom    8 type  1   force =     0.00010785   -0.00026555    0.00009801
     atom    9 type  1   force =    -0.00004291    0.00025281    0.00010364
     atom   10 type  1   force =     0.00002954    0.00013042   -0.00031048
     atom   11 type  1   force =     0.00013912   -0.00018240   -0.00024051
     atom   12 type  1   force =     0.00022427   -0.00031281   -0.00016361
     atom   13 type  1   force =     0.00017561   -0.00003223    0.00004714
     atom   14 type  1   force =    -0.00031881    0.00001845    0.00037454
     atom   15 type  1   force =    -0.00016707    0.00002512   -0.00009083
     atom   16 type  1   force =    -0.00000025    0.00010652    0.00021295
     atom   17 type  1   force =    -0.00000013   -0.00029909    0.00018688
     atom   18 type  1   force =    -0.00044777    0.00017387   -0.00002281
     atom   19 type  1   force =    -0.00008937    0.00032345   -0.00038996
     atom   20 type  1   force =     0.00018605   -0.00000074    0.00006091
     atom   21 type  1   force =     0.00044833   -0.00024479   -0.00018267
     atom   22 type  1   force =     0.00011664   -0.00009084   -0.00017775
     atom   23 type  1   force =    -0.00021067   -0.00008926    0.00026003
     atom   24 type  1   force =    -0.00014559    0.00006255    0.00009381
     atom   25 type  1   force =    -0.00018772    0.00017436   -0.00003863
     atom   26 type  1   force =     0.00020579   -0.00029169    0.00028751
     atom   27 type  1   force =    -0.00026770    0.00025846    0.00003485

     Total force =     0.000341     Total SCF correction =     0.001800
     SCF correction compared to forces is large: reduce conv_thr to get better values


     Computing stress (Cartesian axis) and pressure


     negative rho (up, down):  1.658E+00 0.000E+00
          total   stress  (Ry/bohr**3)                   (kbar)     P=       94.59
   0.00064299   0.00000001   0.00000003           94.59        0.00        0.00
   0.00000001   0.00064301   0.00000002            0.00       94.59        0.00
   0.00000003   0.00000002   0.00064313            0.00        0.00       94.61

      kinetic stress (kbar)  43612.26     -0.00      0.00
                               -0.00  43612.25      0.00
                                0.00      0.00  43612.25

     local   stress (kbar)  35758.50      0.00      0.00
                                0.00  35758.51      0.00
                                0.00      0.00  35758.52

     nonloc. stress (kbar) -19560.77      0.00      0.00
                                0.00 -19560.76      0.00
                                0.00      0.00 -19560.76

     hartree stress (kbar)   7143.91     -0.00     -0.00
                               -0.00   7143.91     -0.00
                               -0.00     -0.00   7143.91

     exc-cor stress (kbar)  24913.37     -0.00     -0.00
                               -0.00  24913.37     -0.00
                               -0.00     -0.00  24913.37

     corecor stress (kbar) -36237.75      0.00      0.00
                                0.00 -36237.75      0.00
                                0.00      0.00 -36237.75

     ewald   stress (kbar) -55534.94     -0.00      0.00
                               -0.00 -55534.94      0.00
                                0.00      0.00 -55534.94

     hubbard stress (kbar)      0.00      0.00      0.00
                                0.00      0.00      0.00
                                0.00      0.00      0.00

     DFT-D   stress (kbar)      0.00      0.00      0.00
                                0.00      0.00      0.00
                                0.00      0.00      0.00

     XDM     stress (kbar)      0.00      0.00      0.00
                                0.00      0.00      0.00
                                0.00      0.00      0.00

     dft-nl  stress (kbar)      0.00      0.00      0.00
                                0.00      0.00      0.00
                                0.00      0.00      0.00

     TS-vdW  stress (kbar)      0.00      0.00      0.00
                                0.00      0.00      0.00
                                0.00      0.00      0.00


                                0.00      0.00      0.00
                                0.00      0.00      0.00


                                0.00      0.00      0.00


     Entering Dynamics;  it =     1   time =  0.00000 pico-seconds

  new lattice vectors (alat unit) :
   0.577371889   0.577371889   0.577350576
   0.577371438  -0.577350397  -0.577371617
  -0.577350397   0.577371552  -0.577371731
  new unit-cell volume =   2854.6915 (a.u.)^3
  new positions in cryst coord
W       -0.000687579  -0.000271388   0.000362132
W       -0.000124974  -0.000298945   0.332910143
W       -0.000110675   0.000759860   0.666706013
W       -0.000042878   0.333253540   0.000110792
W        0.000454336   0.333683674   0.333443293
W        0.000377993   0.333893003   0.666796631
W        0.000479267   0.666378855  -0.000216806
W        0.000509949   0.666888945   0.333393587
W       -0.000669306   0.666154137   0.666390054
W        0.334061944   0.000194898   0.000436630
W        0.332780727   0.000086375   0.333045611
W        0.333074439   0.000035762   0.666818464
W        0.333019719   0.333413884  -0.000329720
W        0.333002921   0.333533723   0.333338402
W        0.334054044   0.332968785   0.666582690
W        0.333096828   0.666486622  -0.000156966
W        0.332886904   0.666173235   0.332862311
W        0.333898720   0.667248245   0.666984598
W        0.666967072   0.000226627   0.001168923
W        0.666753919  -0.000410168   0.332250111
W        0.666779794  -0.000114005   0.666926467
W        0.666609836   0.333738056  -0.000006794
W        0.667432777   0.333556811   0.333831916
W        0.666577172   0.332938839   0.666601718
W        0.666435071   0.665962042  -0.000324194
W        0.666001395   0.666403379   0.333362185
W        0.666380582   0.667115207   0.666711809
  new positions in cart coord (alat unit)
W       -0.000762758  -0.000031218  -0.000449368
W       -0.192450561   0.192313286  -0.192112457
W       -0.384548160   0.384434480  -0.385439824
W        0.192322353  -0.192364852  -0.192499859
W        0.000408126   0.000130591  -0.384917903
W       -0.191976773   0.192434390  -0.577551633
W        0.385150007  -0.384582559  -0.384346354
W        0.192852140  -0.192242194  -0.577240362
W       -0.000508629  -0.000236134  -0.769759695
W        0.192738416   0.193017549   0.192506230
W       -0.000095909   0.384379430  -0.000209847
W       -0.192659439   0.577289183  -0.192722059
W        0.384970242  -0.000410785  -0.000044215
W        0.192386312   0.192160809  -0.192773647
W        0.000268300   0.385499637  -0.384246432
W        0.577221709  -0.192566199  -0.192406185
W        0.384650752  -0.000230612  -0.384622361
W        0.192949992   0.192645628  -0.577571631
W        0.384544008   0.385632099   0.384268072
W        0.192903417   0.577033543   0.193355757
W       -0.000136175   0.770110100  -0.000032967
W        0.577576524   0.192194059   0.192180614
W        0.385205109   0.385522818   0.000011351
W        0.192229531   0.577517419  -0.192257709
W        0.769475511   0.000100247   0.000446272
W        0.576825971   0.192256071  -0.192720010
W        0.384996355   0.384530618  -0.385378724

     Ekin =     0.12350565 Ry    T =    0.0 K  Etot =    -4292.91635074
     new unit-cell volume =   2854.69146 a.u.^3 (   423.02163 Ang^3 )
     density =     19.48455 g/cm^3

CELL_PARAMETERS (angstrom)
   4.728982210   4.728982216   4.728807644
   4.728978518  -4.728806183  -4.728979985
  -4.728806177   4.728979453  -4.728980914

ATOMIC_POSITIONS (crystal)
W            -0.0006875793       -0.0002713876        0.0003621321
W            -0.0001249735       -0.0002989447        0.3329101431
W            -0.0001106746        0.0007598601        0.6667060131
W            -0.0000428777        0.3332535404        0.0001107924
W             0.0004543361        0.3336836743        0.3334432929
W             0.0003779929        0.3338930030        0.6667966306
W             0.0004792674        0.6663788552       -0.0002168064
W             0.0005099494        0.6668889453        0.3333935872
W            -0.0006693063        0.6661541371        0.6663900544
W             0.3340619445        0.0001948979        0.0004366295
W             0.3327807266        0.0000863748        0.3330456112
W             0.3330744393        0.0000357619        0.6668184640
W             0.3330197193        0.3334138836       -0.0003297202
W             0.3330029211        0.3335337234        0.3333384018
W             0.3340540440        0.3329687848        0.6665826896
W             0.3330968282        0.6664866221       -0.0001569664
W             0.3328869037        0.6661732353        0.3328623114
W             0.3338987204        0.6672482451        0.6669845977
W             0.6669670722        0.0002266271        0.0011689235
W             0.6667539189       -0.0004101683        0.3322501108
W             0.6667797939       -0.0001140054        0.6669264668
W             0.6666098360        0.3337380562       -0.0000067937
W             0.6674327765        0.3335568110        0.3338319162
W             0.6665771723        0.3329388391        0.6666017176
W             0.6664350712        0.6659620416       -0.0003241941
W             0.6660013950        0.6664033791        0.3333621854
W             0.6663805824        0.6671152074        0.6667118095



     Writing output data file //scratch/21mt61r55/mlip/mlip/bomd_500K/out/aiida.save/
     NEW-OLD atomic charge density approx. for the potential

     negative rho (up, down):  1.659E+00 0.000E+00
     extrapolated charge  378.04176, renormalised to  378.00000

     total cpu time spent up to now is        4.2 secs

     Self-consistent Calculation

     iteration #  1     ecut=    30.00 Ry     beta= 0.15
     Davidson diagonalization with overlap

---- Real-time Memory Report at c_bands before calling an iterative solver
           293 MiB given to the printing process from OS
             0 MiB allocation reported by mallinfo(arena+hblkhd)
        176526 MiB available memory on the node where the printing process lives
------------------
     ethr =  1.00E-06,  avg # of iterations =  6.0

     negative rho (up, down):  1.659E+00 0.000E+00

     total cpu time spent up to now is        4.6 secs

     total energy              =   -4293.03961730 Ry
     estimated scf accuracy    <       0.00070333 Ry

     iteration #  2     ecut=    30.00 Ry     beta= 0.15
     Davidson diagonalization with overlap

---- Real-time Memory Report at c_bands before calling an iterative solver
           295 MiB given to the printing process from OS
             0 MiB allocation reported by mallinfo(arena+hblkhd)
        176521 MiB available memory on the node where the printing process lives
------------------
     c_bands:  4 eigenvalues not converged
     ethr =  1.86E-07,  avg # of iterations = 20.0

     negative rho (up, down):  1.659E+00 0.000E+00

     total cpu time spent up to now is        5.2 secs

     total energy              =   -4293.03973624 Ry
     estimated scf accuracy    <       0.00040588 Ry

     iteration #  3     ecut=    30.00 Ry     beta= 0.15
     Davidson diagonalization with overlap

---- Real-time Memory Report at c_bands before calling an iterative solver
           296 MiB given to the printing process from OS
             0 MiB allocation reported by mallinfo(arena+hblkhd)
        176502 MiB available memory on the node where the printing process lives
------------------
     ethr =  1.07E-07,  avg # of iterations =  2.0

     negative rho (up, down):  1.659E+00 0.000E+00

     total cpu time spent up to now is        5.4 secs

     total energy              =   -4293.03973794 Ry
     estimated scf accuracy    <       0.00008470 Ry

     iteration #  4     ecut=    30.00 Ry     beta= 0.15
     Davidson diagonalization with overlap

---- Real-time Memory Report at c_bands before calling an iterative solver
           296 MiB given to the printing process from OS
             0 MiB allocation reported by mallinfo(arena+hblkhd)
        176501 MiB available memory on the node where the printing process lives
------------------
     ethr =  2.24E-08,  avg # of iterations =  5.0

     negative rho (up, down):  1.659E+00 0.000E+00

     total cpu time spent up to now is        5.6 secs

     total energy              =   -4293.03974256 Ry
     estimated scf accuracy    <       0.00005239 Ry

     iteration #  5     ecut=    30.00 Ry     beta= 0.15
     Davidson diagonalization with overlap

---- Real-time Memory Report at c_bands before calling an iterative solver
           296 MiB given to the printing process from OS
             0 MiB allocation reported by mallinfo(arena+hblkhd)
        176500 MiB available memory on the node where the printing process lives
------------------
     ethr =  1.39E-08,  avg # of iterations =  4.0

     negative rho (up, down):  1.659E+00 0.000E+00

     total cpu time spent up to now is        5.9 secs

     total energy              =   -4293.03974716 Ry
     estimated scf accuracy    <       0.00001070 Ry

     iteration #  6     ecut=    30.00 Ry     beta= 0.15
     Davidson diagonalization with overlap

---- Real-time Memory Report at c_bands before calling an iterative solver
           296 MiB given to the printing process from OS
             0 MiB allocation reported by mallinfo(arena+hblkhd)
        176492 MiB available memory on the node where the printing process lives
------------------
     ethr =  2.83E-09,  avg # of iterations =  5.0

     negative rho (up, down):  1.659E+00 0.000E+00

     total cpu time spent up to now is        6.1 secs

     total energy              =   -4293.03974708 Ry
     estimated scf accuracy    <       0.00000410 Ry

     iteration #  7     ecut=    30.00 Ry     beta= 0.15
     Davidson diagonalization with overlap

---- Real-time Memory Report at c_bands before calling an iterative solver
           297 MiB given to the printing process from OS
             0 MiB allocation reported by mallinfo(arena+hblkhd)
        176492 MiB available memory on the node where the printing process lives
------------------
     ethr =  1.08E-09,  avg # of iterations =  4.0

     negative rho (up, down):  1.659E+00 0.000E+00

     total cpu time spent up to now is        6.3 secs

     total energy              =   -4293.03974722 Ry
     estimated scf accuracy    <       0.00000272 Ry

     iteration #  8     ecut=    30.00 Ry     beta= 0.15
     Davidson diagonalization with overlap

---- Real-time Memory Report at c_bands before calling an iterative solver
           297 MiB given to the printing process from OS
             0 MiB allocation reported by mallinfo(arena+hblkhd)
        176491 MiB available memory on the node where the printing process lives
------------------
     ethr =  7.19E-10,  avg # of iterations =  5.0

     negative rho (up, down):  1.659E+00 0.000E+00

     total cpu time spent up to now is        6.6 secs

     End of self-consistent calculation

          k = 0.0000 0.0000 0.0000 (  3968 PWs)   bands (ev):

   -51.4216 -51.3166 -51.3163 -51.3160 -51.3157 -51.3154 -51.3152 -51.3149
   -51.3146 -51.3142 -51.3139 -51.3136 -51.3135 -51.2619 -51.2618 -51.2615
   -51.2613 -51.2610 -51.2609 -51.2608 -51.2605 -51.2306 -51.2298 -51.2295
   -51.2285 -51.2281 -51.2276 -15.9903 -15.9895 -15.9888 -15.9880 -15.9868
   -15.9861 -15.9852 -15.9844 -15.9838 -15.9831 -15.9828 -15.9822 -15.9008
   -15.9002 -15.8991 -15.8986 -15.8979 -15.8971 -15.8967 -15.8954 -15.8934
   -15.8926 -15.8924 -15.8911 -15.8908 -15.8902 -15.8887 -15.8879 -15.8531
   -15.8511 -15.8510 -15.8491 -15.8480 -15.8475 -15.6640 -15.6622 -15.6610
   -15.6606 -15.6596 -15.6594 -15.6588 -15.6581 -15.6575 -15.6568 -15.6559
   -15.6539 -15.2921 -15.2919 -15.2916 -15.2913 -15.2912 -15.2909 -15.2906
   -15.2901 -15.2900 -15.2897 -15.2895 -15.2892 -15.1335 -15.1331 -15.1328
   -15.1325 -15.1324 -15.1322 -15.1322 -15.1315 -14.9685 -14.9683 -14.9682
   -14.9679 -14.9676 -14.9675 -14.9673 -14.9671 -14.9669 -14.9669 -14.9667
   -14.9664 -14.9623 -14.9623 -14.9622  13.0921  16.3096  16.3113  16.3129
    16.3139  16.3146  16.3162  16.3173  16.3175  16.3185  16.3190  16.3207
    16.3222  18.2302  18.2309  18.2316  18.2321  18.2331  18.2338  18.2358
    18.2370  18.2432  18.2477  18.2493  18.2532  18.3407  18.3451  18.3455
    18.3472  18.3480  18.3497  18.3513  18.3545  19.6136  19.6160  19.6165
    19.6172  19.6195  19.6205  19.6217  19.6232  19.6236  19.6250  19.6270
    19.6289  20.0674  20.0682  20.0690  20.0709  20.0723  20.0729  20.0737
    20.0758  20.0764  20.0778  20.0782  20.0791  20.0810  20.0823  20.0825
    20.0831  21.3071  21.3111  21.3129  21.3158  21.3163  21.3181  21.3203
    21.3220  21.3228  21.3259  21.3268  21.3310  21.4913  21.4917  21.4927
    23.6871  23.6891  23.6918  23.6928  23.6957  23.6974  23.6980  23.6983
    23.7005  23.7025  23.7054  23.7071  24.7660  24.7674  24.7693  24.7705
    24.7713  24.7728  24.7732  24.7743  24.7764  24.7774  24.7789  24.7803
    25.0230  25.0234  25.4746  25.4766  25.4793  25.4818  25.4830  25.4849
    25.4861  25.4873  25.4895  25.4910  25.4914  25.4964  25.5898  25.5929
    25.5966  25.5977  25.6041

     occupation numbers 
     1.0000   1.0000   1.0000   1.0000   1.0000   1.0000   1.0000   1.0000
     1.0000   1.0000   1.0000   1.0000   1.0000   1.0000   1.0000   1.0000
     1.0000   1.0000   1.0000   1.0000   1.0000   1.0000   1.0000   1.0000
     1.0000   1.0000   1.0000   1.0000   1.0000   1.0000   1.0000   1.0000
     1.0000   1.0000   1.0000   1.0000   1.0000   1.0000   1.0000   1.0000
     1.0000   1.0000   1.0000   1.0000   1.0000   1.0000   1.0000   1.0000
     1.0000   1.0000   1.0000   1.0000   1.0000   1.0000   1.0000   1.0000
     1.0000   1.0000   1.0000   1.0000   1.0000   1.0000   1.0000   1.0000
     1.0000   1.0000   1.0000   1.0000   1.0000   1.0000   1.0000   1.0000
     1.0000   1.0000   1.0000   1.0000   1.0000   1.0000   1.0000   1.0000
     1.0000   1.0000   1.0000   1.0000   1.0000   1.0000   1.0000   1.0000
     1.0000   1.0000   1.0000   1.0000   1.0000   1.0000   1.0000   1.0000
     1.0000   1.0000   1.0000   1.0000   1.0000   1.0000   1.0000   1.0000
     1.0000   1.0000   1.0000   1.0000   1.0000   1.0000   1.0000   1.0000
     1.0000   1.0000   1.0000   1.0000   1.0000   1.0000   1.0000   1.0000
     1.0000   1.0000   1.0000   1.0000   1.0000   1.0000   1.0000   1.0000
     1.0000   1.0000   1.0000   1.0000   1.0000   1.0000   1.0000   1.0000
     1.0000   1.0000   1.0000   1.0000   1.0000   1.0000   1.0000   1.0000
     1.0000   1.0000   1.0000   1.0000   1.0000   1.0000   1.0000   1.0000
     1.0000   1.0000   1.0000   1.0000   1.0000   1.0000   1.0000   1.0000
     1.0000   1.0000   1.0000   1.0000   1.0000   1.0000   1.0000   1.0000
     1.0000   1.0000   1.0000   1.0000   1.0000   1.0000   1.0000   1.0000
     1.0000   1.0000   1.0000   1.0000   1.0000   1.0000   1.0000   1.0000
     0.4426   0.4373   0.4303   0.4276   0.4204   0.4158   0.4143   0.4137
     0.4081   0.4029   0.3957   0.3914   0.0000   0.0000   0.0000   0.0000
     0.0000   0.0000   0.0000   0.0000   0.0000   0.0000   0.0000   0.0000
     0.0000   0.0000   0.0000   0.0000   0.0000   0.0000   0.0000   0.0000
     0.0000   0.0000   0.0000   0.0000   0.0000   0.0000   0.0000   0.0000
     0.0000   0.0000   0.0000

     the Fermi energy is    23.7034 ev

!    total energy              =   -4293.03974738 Ry
     estimated scf accuracy    <       0.00000023 Ry
     smearing contrib. (-TS)   =      -0.08195794 Ry
     internal energy E=F+TS    =   -4292.95778943 Ry

     convergence has been achieved in   8 iterations

     negative rho (up, down):  1.659E+00 0.000E+00

     Forces acting on atoms (cartesian axes, Ry/au):

     atom    1 type  1   force =     0.00266568    0.00006399    0.00200187
     atom    2 type  1   force =    -0.00073703    0.00112222   -0.00088213
     atom    3 type  1   force =    -0.00166484    0.00164479    0.00181791
     atom    4 type  1   force =    -0.00040917   -0.00079180   -0.00006068
     atom    5 type  1   force =    -0.00070590    0.00070987   -0.00085355
     atom    6 type  1   force =    -0.00083478    0.00016222    0.00242399
     atom    7 type  1   force =    -0.00121566   -0.00207500   -0.00146845
     atom    8 type  1   force =    -0.00158476   -0.00104743   -0.00118616
     atom    9 type  1   force =     0.00311253    0.00038935   -0.00178253
     atom   10 type  1   force =    -0.00131142   -0.00347777   -0.00155101
     atom   11 type  1   force =     0.00119193    0.00272484    0.00218394
     atom   12 type  1   force =     0.00043396    0.00121942    0.00101710
     atom   13 type  1   force =    -0.00147188    0.00193945   -0.00004053
     atom   14 type  1   force =     0.00038056    0.00131215    0.00144470
     atom   15 type  1   force =    -0.00057303   -0.00301821   -0.00231907
     atom   16 type  1   force =     0.00066555    0.00026301    0.00118528
     atom   17 type  1   force =     0.00221650    0.00019243   -0.00191920
     atom   18 type  1   force =    -0.00189256   -0.00001146   -0.00005857
     atom   19 type  1   force =     0.00192612   -0.00281440    0.00201604
     atom   20 type  1   force =    -0.00236863    0.00207069   -0.00354211
     atom   21 type  1   force =     0.00096882   -0.00247231   -0.00090889
     atom   22 type  1   force =    -0.00093776    0.00264536    0.00079484
     atom   23 type  1   force =    -0.00093970   -0.00288231   -0.00110959
     atom   24 type  1   force =     0.00107450   -0.00042415    0.00101292
     atom   25 type  1   force =     0.00071161    0.00026458   -0.00049797
     atom   26 type  1   force =     0.00219896    0.00040145    0.00112842
     atom   27 type  1   force =    -0.00089958    0.00188901    0.00115342
     The non-local contrib.  to forces
     atom    1 type  1   force =     0.00260169   -0.00023232    0.00234123
     atom    2 type  1   force =    -0.00042752    0.00111794   -0.00159516
     atom    3 type  1   force =    -0.00093064    0.00187730    0.00222336
     atom    4 type  1   force =     0.00031173   -0.00041241    0.00042855
     atom    5 type  1   force =    -0.00149135   -0.00077603    0.00010405
     atom    6 type  1   force =    -0.00158346    0.00016529    0.00048925
     atom    7 type  1   force =     0.00000136   -0.00122562   -0.00169678
     atom    8 type  1   force =    -0.00113692   -0.00041301   -0.00127975
     atom    9 type  1   force =     0.00123514    0.00019106   -0.00066964
     atom   10 type  1   force =    -0.00016105   -0.00234684   -0.00001851
     atom   11 type  1   force =     0.00034158    0.00224779    0.00034747
     atom   12 type  1   force =    -0.00018047   -0.00009224    0.00060747
     atom   13 type  1   force =    -0.00065789    0.00150248    0.00069015
     atom   14 type  1   force =     0.00061387    0.00139746    0.00156072
     atom   15 type  1   force =    -0.00084078   -0.00190657   -0.00207939
     atom   16 type  1   force =     0.00002065    0.00033695   -0.00083394
     atom   17 type  1   force =     0.00132773    0.00084829   -0.00090099
     atom   18 type  1   force =    -0.00093676   -0.00079788    0.00027901
     atom   19 type  1   force =     0.00104856   -0.00268045    0.00172813
     atom   20 type  1   force =    -0.00152549    0.00135804   -0.00317527
     atom   21 type  1   force =     0.00035682   -0.00106883   -0.00003829
     atom   22 type  1   force =    -0.00086323    0.00088430    0.00120004
     atom   23 type  1   force =    -0.00074822   -0.00185054   -0.00077274
     atom   24 type  1   force =     0.00037721   -0.00073156   -0.00015399
     atom   25 type  1   force =     0.00118347   -0.00014700   -0.00117282
     atom   26 type  1   force =     0.00130453    0.00120553    0.00036632
     atom   27 type  1   force =     0.00078118    0.00157464    0.00202700
     The ionic contribution  to forces
     atom    1 type  1   force =     0.19709834    0.00863813    0.25031561
     atom    2 type  1   force =    -0.10046523    0.11954688   -0.07901826
     atom    3 type  1   force =    -0.11815496    0.10263368    0.10688679
     atom    4 type  1   force =    -0.07414914   -0.07953937    0.09505369
     atom    5 type  1   force =    -0.02055830    0.04018840   -0.09912245
     atom    6 type  1   force =    -0.07248848   -0.01969749    0.11389509
     atom    7 type  1   force =     0.00272004   -0.12349947   -0.06389037
     atom    8 type  1   force =    -0.09723655   -0.04618289   -0.16443528
     atom    9 type  1   force =     0.21071461   -0.06937531   -0.15442235
     atom   10 type  1   force =    -0.05035083   -0.24776538   -0.09640996
     atom   11 type  1   force =     0.09283360    0.16511917    0.05672771
     atom   12 type  1   force =    -0.06291536    0.05439778    0.03390453
     atom   13 type  1   force =    -0.12306445    0.12627176    0.08353022
     atom   14 type  1   force =     0.08600655    0.10445019    0.17233925
     atom   15 type  1   force =    -0.05185183   -0.13836711   -0.06377972
     atom   16 type  1   force =     0.05605963   -0.00701958    0.01846315
     atom   17 type  1   force =     0.16240969    0.04029984   -0.14746963
     atom   18 type  1   force =    -0.06605901   -0.04883132   -0.06306198
     atom   19 type  1   force =     0.11789805   -0.21064144    0.08341763
     atom   20 type  1   force =    -0.19656621    0.16350597   -0.26978699
     atom   21 type  1   force =     0.04776772   -0.15252819   -0.00195951
     atom   22 type  1   force =    -0.09478045    0.09095223    0.02709616
     atom   23 type  1   force =    -0.06217866   -0.13847705   -0.08228257
     atom   24 type  1   force =     0.04062651   -0.01733661    0.11423207
     atom   25 type  1   force =     0.03446737    0.04931829   -0.01167058
     atom   26 type  1   force =     0.10125501    0.13528876    0.02978942
     atom   27 type  1   force =     0.04096236    0.09865011    0.11165829
     The local contribution  to forces
     atom    1 type  1   force =    -0.19715280   -0.00838111   -0.25104921
     atom    2 type  1   force =     0.10037618   -0.11961699    0.07997455
     atom    3 type  1   force =     0.11724659   -0.10308139   -0.10761492
     atom    4 type  1   force =     0.07360713    0.07915485   -0.09564072
     atom    5 type  1   force =     0.02163018   -0.03854038    0.09802782
     atom    6 type  1   force =     0.07331951    0.01965207   -0.11200882
     atom    7 type  1   force =    -0.00427613    0.12275215    0.06456844
     atom    8 type  1   force =     0.09680813    0.04563008    0.16480401
     atom    9 type  1   force =    -0.20875505    0.06967484    0.15331186
     atom   10 type  1   force =     0.04894140    0.24683641    0.09473926
     atom   11 type  1   force =    -0.09204116   -0.16473770   -0.05464234
     atom   12 type  1   force =     0.06396116   -0.05299934   -0.03360332
     atom   13 type  1   force =     0.12231643   -0.12607770   -0.08455526
     atom   14 type  1   force =    -0.08613958   -0.10471410   -0.17274429
     atom   15 type  1   force =     0.05208497    0.13747708    0.06383968
     atom   16 type  1   force =    -0.05545674    0.00689588   -0.01614346
     atom   17 type  1   force =    -0.16172383   -0.04112176    0.14650328
     atom   18 type  1   force =     0.06511082    0.04964760    0.06269650
     atom   19 type  1   force =    -0.11690038    0.21073896   -0.08321110
     atom   20 type  1   force =     0.19579556   -0.16291554    0.26947657
     atom   21 type  1   force =    -0.04721445    0.15115882    0.00098733
     atom   22 type  1   force =     0.09462309   -0.08907812   -0.02745653
     atom   23 type  1   force =     0.06202807    0.13758773    0.08194559
     atom   24 type  1   force =    -0.03961052    0.01779323   -0.11308255
     atom   25 type  1   force =    -0.03506248   -0.04893648    0.01249839
     atom   26 type  1   force =    -0.10053491   -0.13623694   -0.02902405
     atom   27 type  1   force =    -0.04300255   -0.09854205   -0.11257422
     The core correction contribution to forces
     atom    1 type  1   force =     0.00036637   -0.00000574    0.00057805
     atom    2 type  1   force =    -0.00015830    0.00018120   -0.00032883
     atom    3 type  1   force =    -0.00004273    0.00022589    0.00026157
     atom    4 type  1   force =    -0.00006859   -0.00008979    0.00028178
     atom    5 type  1   force =    -0.00016581   -0.00019898    0.00001701
     atom    6 type  1   force =    -0.00024271   -0.00002700   -0.00017221
     atom    7 type  1   force =     0.00025144   -0.00005373   -0.00021448
     atom    8 type  1   force =    -0.00011934   -0.00000474   -0.00028768
     atom    9 type  1   force =     0.00003654   -0.00015758   -0.00005884
     atom   10 type  1   force =     0.00014750   -0.00025957    0.00011332
     atom   11 type  1   force =     0.00003715    0.00024102   -0.00029095
     atom   12 type  1   force =    -0.00029675   -0.00012184    0.00003623
     atom   13 type  1   force =    -0.00006174    0.00016824    0.00029804
     atom   14 type  1   force =     0.00019806    0.00019523    0.00039395
     atom   15 type  1   force =    -0.00008356   -0.00012914   -0.00014770
     atom   16 type  1   force =    -0.00000715    0.00002536   -0.00036847
     atom   17 type  1   force =     0.00014231    0.00019701   -0.00008547
     atom   18 type  1   force =     0.00000889   -0.00021922   -0.00002177
     atom   19 type  1   force =     0.00007472   -0.00040135    0.00013421
     atom   20 type  1   force =    -0.00025802    0.00022732   -0.00046964
     atom   21 type  1   force =    -0.00002228   -0.00004913    0.00014916
     atom   22 type  1   force =    -0.00010002   -0.00017288    0.00011787
     atom   23 type  1   force =    -0.00009854   -0.00006474   -0.00005872
     atom   24 type  1   force =    -0.00010782   -0.00005485    0.00000172
     atom   25 type  1   force =     0.00016777    0.00001283   -0.00016519
     atom   26 type  1   force =     0.00003227    0.00039928   -0.00004543
     atom   27 type  1   force =     0.00037423    0.00015290    0.00035045
     The Hubbard contrib.    to forces
     atom    1 type  1   force =     0.00000000    0.00000000    0.00000000
     atom    2 type  1   force =     0.00000000    0.00000000    0.00000000
     atom    3 type  1   force =     0.00000000    0.00000000    0.00000000
     atom    4 type  1   force =     0.00000000    0.00000000    0.00000000
     atom    5 type  1   force =     0.00000000    0.00000000    0.00000000
     atom    6 type  1   force =     0.00000000    0.00000000    0.00000000
     atom    7 type  1   force =     0.00000000    0.00000000    0.00000000
     atom    8 type  1   force =     0.00000000    0.00000000    0.00000000
     atom    9 type  1   force =     0.00000000    0.00000000    0.00000000
     atom   10 type  1   force =     0.00000000    0.00000000    0.00000000
     atom   11 type  1   force =     0.00000000    0.00000000    0.00000000
     atom   12 type  1   force =     0.00000000    0.00000000    0.00000000
     atom   13 type  1   force =     0.00000000    0.00000000    0.00000000
     atom   14 type  1   force =     0.00000000    0.00000000    0.00000000
     atom   15 type  1   force =     0.00000000    0.00000000    0.00000000
     atom   16 type  1   force =     0.00000000    0.00000000    0.00000000
     atom   17 type  1   force =     0.00000000    0.00000000    0.00000000
     atom   18 type  1   force =     0.00000000    0.00000000    0.00000000
     atom   19 type  1   force =     0.00000000    0.00000000    0.00000000
     atom   20 type  1   force =     0.00000000    0.00000000    0.00000000
     atom   21 type  1   force =     0.00000000    0.00000000    0.00000000
     atom   22 type  1   force =     0.00000000    0.00000000    0.00000000
     atom   23 type  1   force =     0.00000000    0.00000000    0.00000000
     atom   24 type  1   force =     0.00000000    0.00000000    0.00000000
     atom   25 type  1   force =     0.00000000    0.00000000    0.00000000
     atom   26 type  1   force =     0.00000000    0.00000000    0.00000000
     atom   27 type  1   force =     0.00000000    0.00000000    0.00000000
     The SCF correction term to forces
     atom    1 type  1   force =    -0.00024733    0.00004675   -0.00018282
     atom    2 type  1   force =    -0.00006157   -0.00010510    0.00008657
     atom    3 type  1   force =     0.00021749   -0.00000897    0.00006211
     atom    4 type  1   force =    -0.00010971    0.00009663   -0.00018299
     atom    5 type  1   force =    -0.00012003    0.00003858    0.00012103
     atom    6 type  1   force =     0.00016094    0.00007108    0.00022168
     atom    7 type  1   force =     0.00008821   -0.00004661   -0.00023427
     atom    8 type  1   force =     0.00010050   -0.00007514    0.00001355
     atom    9 type  1   force =    -0.00011812    0.00005806    0.00005744
     atom   10 type  1   force =     0.00011214    0.00005934    0.00002587
     atom   11 type  1   force =     0.00002135   -0.00014371    0.00004304
     atom   12 type  1   force =    -0.00013404    0.00003678    0.00007320
     atom   13 type  1   force =    -0.00000364    0.00007640   -0.00000269
     atom   14 type  1   force =    -0.00029775   -0.00001490   -0.00010393
     atom   15 type  1   force =     0.00011877   -0.00009073   -0.00015095
     atom   16 type  1   force =     0.00004975    0.00002612    0.00006901
     atom   17 type  1   force =     0.00006119   -0.00002923    0.00003461
     atom   18 type  1   force =    -0.00001592    0.00019107    0.00005067
     atom   19 type  1   force =    -0.00019425    0.00017160   -0.00005184
     atom   20 type  1   force =     0.00018613   -0.00010338    0.00041422
     atom   21 type  1   force =     0.00008159    0.00001674   -0.00004657
     atom   22 type  1   force =     0.00018343    0.00006155   -0.00016169
     atom   23 type  1   force =     0.00005824   -0.00007600    0.00005985
     atom   24 type  1   force =    -0.00021030   -0.00009264    0.00001667
     atom   25 type  1   force =    -0.00004393    0.00001866    0.00001323
     atom   26 type  1   force =     0.00014265   -0.00025346    0.00004317
     atom   27 type  1   force =    -0.00001422    0.00005513   -0.00030710

     Total force =     0.014459     Total SCF correction =     0.001148


     Computing stress (Cartesian axis) and pressure


     negative rho (up, down):  1.659E+00 0.000E+00
          total   stress  (Ry/bohr**3)                   (kbar)     P=       93.63
   0.00063647  -0.00000035   0.00000032           93.63       -0.05        0.05
  -0.00000035   0.00063645   0.00000016           -0.05       93.63        0.02
   0.00000032   0.00000016   0.00063653            0.05        0.02       93.64

     kinetic stress (kbar)  43606.36     -0.00     -0.10
                               -0.00  43606.40     -0.16
                               -0.10     -0.16  43606.35

     local   stress (kbar)  35750.89      1.40     -1.54
                                1.40  35750.46     -1.28
                               -1.54     -1.28  35750.90

     nonloc. stress (kbar) -19558.07      0.04     -0.04
                                0.04 -19558.09     -0.02
                               -0.04     -0.02 -19558.06

     hartree stress (kbar)   7143.89     -0.36      0.39
                               -0.36   7144.01      0.31
                                0.39      0.31   7143.87

     exc-cor stress (kbar)  24910.67     -0.00      0.00
                               -0.00  24910.67      0.00
                                0.00      0.00  24910.67

     corecor stress (kbar) -36233.64     -0.00      0.00
                               -0.00 -36233.64      0.00
                                0.00      0.00 -36233.64

     ewald   stress (kbar) -55526.47     -1.13      1.32
                               -1.13 -55526.19      1.17
                                1.32      1.17 -55526.44

     hubbard stress (kbar)      0.00      0.00      0.00
                                0.00      0.00      0.00
                                0.00      0.00      0.00

     DFT-D   stress (kbar)      0.00      0.00      0.00
                                0.00      0.00      0.00
                                0.00      0.00      0.00

     XDM     stress (kbar)      0.00      0.00      0.00
                                0.00      0.00      0.00
                                0.00      0.00      0.00

     dft-nl  stress (kbar)      0.00      0.00      0.00
                                0.00      0.00      0.00
                                0.00      0.00      0.00

     TS-vdW  stress (kbar)      0.00      0.00      0.00
                                0.00      0.00      0.00
                                0.00      0.00      0.00


                                0.00      0.00      0.00
                                0.00      0.00      0.00


                                0.00      0.00      0.00


     Entering Dynamics;  it =     2   time =  0.00194 pico-seconds

  new lattice vectors (alat unit) :
   0.577425606   0.577425605   0.577351365
   0.577424034  -0.577350743  -0.577424655
  -0.577350744   0.577424440  -0.577425062
  new unit-cell volume =   2855.4808 (a.u.)^3
  new positions in cryst coord
W       -0.001373616  -0.000542365   0.000723244
W       -0.000249679  -0.000597738   0.332488109
W       -0.000221396   0.001517767   0.666745217
W       -0.000086393   0.333173571   0.000221188
W        0.000908586   0.334034016   0.333554025
W        0.000755533   0.334450831   0.666925306
W        0.000956746   0.666091196  -0.000433921
W        0.001018408   0.667110942   0.333453864
W       -0.001336604   0.665644346   0.666114711
W        0.334787865   0.000389824   0.000872114
W        0.332230301   0.000172263   0.332758248
W        0.332816454   0.000071215   0.666970361
W        0.332706415   0.333493704  -0.000658325
W        0.332673447   0.333733543   0.333343411
W        0.334772774   0.332605178   0.666498324
W        0.332860875   0.666306345  -0.000314379
W        0.332441884   0.665682132   0.332392542
W        0.334462962   0.667828709   0.667302436
W        0.667266872   0.000453083   0.002335081
W        0.666841092  -0.000819593   0.331170051
W        0.666892090  -0.000227017   0.667185395
W        0.666553896   0.334141809  -0.000012620
W        0.668196695   0.333780273   0.334329427
W        0.666488063   0.332544442   0.666536037
W        0.666204090   0.665258186  -0.000647879
W        0.665337611   0.666140735   0.333390708
W        0.666095029   0.667562606   0.666757326
  new positions in cart coord (alat unit)
W       -0.001523901  -0.000062408  -0.000897504
W       -0.192451576   0.192187694  -0.191785970
W       -0.384197292   0.383990860  -0.385999618
W        0.192204838  -0.192280175  -0.192560233
W        0.000826245   0.000272099  -0.384957357
W       -0.191493609   0.192439800  -0.577783333
W        0.385420040  -0.384266353  -0.383814543
W        0.193274110  -0.192024533  -0.577162945
W       -0.000994570  -0.000451133  -0.769762475
W        0.193036664   0.193593600   0.192561556
W       -0.000180471   0.383881572  -0.000428803
W       -0.192857970   0.577260613  -0.193014489
W        0.385060567  -0.000809767  -0.000098850
W        0.192343869   0.191893489  -0.193117347
W        0.000557293   0.386128946  -0.383625748
W        0.577125196  -0.192671601  -0.192382501
W        0.384434237  -0.000440040  -0.384377284
W        0.193480268   0.192872812  -0.577835264
W        0.384210437   0.386383722   0.383637484
W        0.193376594   0.576749995   0.194248981
W       -0.000250500   0.770460790  -0.000087424
W        0.577834085   0.191960978   0.191901370
W        0.385541289   0.386175575   0.000001125
W        0.192041350   0.577726690  -0.192096179
W        0.769193418   0.000221891   0.000871463
W        0.576345270   0.192094067  -0.193020657
W        0.385134181   0.384204534  -0.385898623

     Ekin =     0.12351281 Ry    T =  464.3 K  Etot =    -4292.91623456
     new unit-cell volume =   2855.48081 a.u.^3 (   423.13860 Ang^3 )
     density =     19.47916 g/cm^3

CELL_PARAMETERS (angstrom)
   4.729422179   4.729422172   4.728814109
   4.729409305  -4.728809013  -4.729414395
  -4.728809019   4.729412631  -4.729417727

ATOMIC_POSITIONS (crystal)
W            -0.0013736164       -0.0005423647        0.0007232438
W            -0.0002496789       -0.0005977382        0.3324881088
W            -0.0002213961        0.0015177666        0.6667452172
W            -0.0000863934        0.3331735705        0.0002211879
W             0.0009085856        0.3340340162        0.3335540252
W             0.0007555334        0.3344508305        0.6669253059
W             0.0009567463        0.6660911955       -0.0004339212
W             0.0010184080        0.6671109424        0.3334538637
W            -0.0013366041        0.6656443460        0.6661147107
W             0.3347878649        0.0003898239        0.0008721140
W             0.3322303008        0.0001722626        0.3327582484
W             0.3328164538        0.0000712146        0.6669703608
W             0.3327064153        0.3334937036       -0.0006583249
W             0.3326734466        0.3337335434        0.3333434106
W             0.3347727738        0.3326051784        0.6664983235
W             0.3328608748        0.6663063451       -0.0003143785
W             0.3324418839        0.6656821324        0.3323925419
W             0.3344629625        0.6678287088        0.6673024358
W             0.6672668716        0.0004530825        0.0023350815
W             0.6668410925       -0.0008195928        0.3311700508
W             0.6668920904       -0.0002270169        0.6671853948
W             0.6665538965        0.3341418088       -0.0000126202
W             0.6681966950        0.3337802728        0.3343294273
W             0.6664880630        0.3325444417        0.6665360369
W             0.6662040896        0.6652581856       -0.0006478788
[...]
     1.0000   1.0000   1.0000   1.0000   1.0000   1.0000   1.0000   1.0000
     1.0000   1.0000   1.0000   1.0000   1.0000   1.0000   1.0000   1.0000
     1.0000   1.0000   1.0000   1.0000   1.0000   1.0000   1.0000   1.0000
     1.0000   1.0000   1.0000   1.0000   1.0000   1.0000   1.0000   1.0000
     1.0000   1.0000   1.0000   1.0000   1.0000   1.0000   1.0000   1.0000
     1.0000   1.0000   1.0000   1.0000   1.0000   1.0000   1.0000   1.0000
     1.0000   1.0000   1.0000   1.0000   1.0000   1.0000   1.0000   1.0000
     1.0000   1.0000   1.0000   1.0000   1.0000   1.0000   1.0000   1.0000
     1.0000   1.0000   1.0000   1.0000   1.0000   1.0000   1.0000   1.0000
     1.0000   1.0000   1.0000   1.0000   1.0000   1.0000   1.0000   1.0000
     1.0000   1.0000   1.0000   1.0000   1.0000   1.0000   1.0000   1.0000
     1.0000   1.0000   1.0000   1.0000   1.0000   1.0000   1.0000   1.0000
     1.0000   1.0000   1.0000   1.0000   1.0000   1.0000   1.0000   1.0000
     1.0000   1.0000   1.0000   1.0000   1.0000   1.0000   1.0000   1.0000
     1.0000   1.0000   1.0000   1.0000   1.0000   1.0000   1.0000   1.0000
     1.0000   1.0000   1.0000   1.0000   1.0000   1.0000   1.0000   1.0000
     1.0000   1.0000   1.0000   1.0000   1.0000   1.0000   1.0000   1.0000
     1.0000   1.0000   1.0000   1.0000   1.0000   1.0000   1.0000   1.0000
     1.0000   1.0000   1.0000   1.0000   1.0000   1.0000   1.0000   1.0000
     0.4935   0.4797   0.4572   0.4492   0.4275   0.4138   0.4088   0.4063
     0.3930   0.3751   0.3537   0.3421   0.0000   0.0000   0.0000   0.0000
     0.0000   0.0000   0.0000   0.0000   0.0000   0.0000   0.0000   0.0000
     0.0000   0.0000   0.0000   0.0000   0.0000   0.0000   0.0000   0.0000
     0.0000   0.0000   0.0000   0.0000   0.0000   0.0000   0.0000   0.0000
     0.0000   0.0000   0.0000

     the Fermi energy is    23.6815 ev

!    total energy              =   -4293.03856199 Ry
     estimated scf accuracy    <       0.00000016 Ry
     smearing contrib. (-TS)   =      -0.08132642 Ry
     internal energy E=F+TS    =   -4292.95723557 Ry

     convergence has been achieved in   8 iterations

     negative rho (up, down):  1.662E+00 0.000E+00

     Forces acting on atoms (cartesian axes, Ry/au):

     atom    1 type  1   force =     0.00767070    0.00015096    0.00597126
     atom    2 type  1   force =    -0.00228488    0.00340295   -0.00274714
     atom    3 type  1   force =    -0.00488695    0.00485182    0.00555602
     atom    4 type  1   force =    -0.00130000   -0.00249130   -0.00020315
     atom    5 type  1   force =    -0.00229678    0.00214852   -0.00259920
     atom    6 type  1   force =    -0.00231648    0.00049323    0.00717741
     atom    7 type  1   force =    -0.00360984   -0.00636378   -0.00445839
     atom    8 type  1   force =    -0.00484101   -0.00310616   -0.00355295
     atom    9 type  1   force =     0.00940966    0.00121299   -0.00534015
     atom   10 type  1   force =    -0.00381386   -0.01040411   -0.00450646
     atom   11 type  1   force =     0.00369229    0.00813553    0.00648233
     atom   12 type  1   force =     0.00135320    0.00366239    0.00308715
     atom   13 type  1   force =    -0.00426569    0.00566708   -0.00004827
     atom   14 type  1   force =     0.00102576    0.00390696    0.00442059
     atom   15 type  1   force =    -0.00182683   -0.00896673   -0.00691193
     atom   16 type  1   force =     0.00203450    0.00092818    0.00337162
     atom   17 type  1   force =     0.00676429    0.00058122   -0.00569682
     atom   18 type  1   force =    -0.00576971   -0.00008980   -0.00027942
     atom   19 type  1   force =     0.00566505   -0.00846603    0.00628676
     atom   20 type  1   force =    -0.00691893    0.00662791   -0.01047411
     atom   21 type  1   force =     0.00300892   -0.00741196   -0.00284931
     atom   22 type  1   force =    -0.00279513    0.00772418    0.00238351
     atom   23 type  1   force =    -0.00285550   -0.00850880   -0.00338876
     atom   24 type  1   force =     0.00327365   -0.00118993    0.00306223
     atom   25 type  1   force =     0.00210046    0.00081695   -0.00148801
     atom   26 type  1   force =     0.00651555    0.00101074    0.00342128
     atom   27 type  1   force =    -0.00273243    0.00567702    0.00332390
     The non-local contrib.  to forces
     atom    1 type  1   force =     0.00803744   -0.00073636    0.00709189
     atom    2 type  1   force =    -0.00132104    0.00355152   -0.00464020
     atom    3 type  1   force =    -0.00286277    0.00576891    0.00690218
     atom    4 type  1   force =     0.00073635   -0.00111588    0.00099022
     atom    5 type  1   force =    -0.00436672   -0.00235421    0.00032271
     atom    6 type  1   force =    -0.00478375    0.00053680    0.00175335
     atom    7 type  1   force =     0.00003795   -0.00368402   -0.00514619
     atom    8 type  1   force =    -0.00347636   -0.00121117   -0.00392321
     atom    9 type  1   force =     0.00384600    0.00044939   -0.00217382
     atom   10 type  1   force =    -0.00045918   -0.00729490   -0.00001557
     atom   11 type  1   force =     0.00095656    0.00668535    0.00120007
     atom   12 type  1   force =    -0.00072987   -0.00032040    0.00182880
     atom   13 type  1   force =    -0.00204041    0.00458894    0.00193235
     atom   14 type  1   force =     0.00180010    0.00409443    0.00469411
     atom   15 type  1   force =    -0.00248177   -0.00579636   -0.00629785
     atom   16 type  1   force =    -0.00003048    0.00110225   -0.00259997
     atom   17 type  1   force =     0.00412655    0.00253440   -0.00281222
     atom   18 type  1   force =    -0.00282516   -0.00237874    0.00083760
     atom   19 type  1   force =     0.00313555   -0.00818215    0.00518522
     atom   20 type  1   force =    -0.00456524    0.00415657   -0.00936614
     atom   21 type  1   force =     0.00114684   -0.00325043   -0.00010949
     atom   22 type  1   force =    -0.00253673    0.00286130    0.00362361
     atom   23 type  1   force =    -0.00213930   -0.00568392   -0.00249095
     atom   24 type  1   force =     0.00098942   -0.00220914   -0.00048560
     atom   25 type  1   force =     0.00345427   -0.00030238   -0.00334753
     atom   26 type  1   force =     0.00401019    0.00353103    0.00095789
     atom   27 type  1   force =     0.00248449    0.00458252    0.00590453
     The ionic contribution  to forces
     atom    1 type  1   force =     0.58673127    0.02250536    0.74523878
     atom    2 type  1   force =    -0.30027612    0.36145822   -0.23596741
     atom    3 type  1   force =    -0.35174577    0.30161483    0.32116944
     atom    4 type  1   force =    -0.22214592   -0.23654547    0.28307136
     atom    5 type  1   force =    -0.06279846    0.11826089   -0.29560724
     atom    6 type  1   force =    -0.21418667   -0.05790562    0.34032091
     atom    7 type  1   force =     0.00911576   -0.36953221   -0.19467288
     atom    8 type  1   force =    -0.28965570   -0.13709566   -0.48935200
     atom    9 type  1   force =     0.62802979   -0.20715026   -0.46094918
     atom   10 type  1   force =    -0.14918910   -0.73613090   -0.28910660
     atom   11 type  1   force =     0.27691191    0.48614051    0.17062844
     atom   12 type  1   force =    -0.19146091    0.15942855    0.09778784
     atom   13 type  1   force =    -0.36442631    0.37575782    0.25047370
     atom   14 type  1   force =     0.25364345    0.31328056    0.51264666
     atom   15 type  1   force =    -0.15449353   -0.41130204   -0.18818582
     atom   16 type  1   force =     0.17028290   -0.01944717    0.05400826
     atom   17 type  1   force =     0.48243769    0.12072004   -0.43744159
     atom   18 type  1   force =    -0.19654184   -0.14733562   -0.18826920
     atom   19 type  1   force =     0.35581887   -0.63169633    0.25396605
     atom   20 type  1   force =    -0.59157872    0.49406018   -0.80559980
     atom   21 type  1   force =     0.14299072   -0.45126761   -0.00682597
     atom   22 type  1   force =    -0.28465158    0.27539087    0.07957878
     atom   23 type  1   force =    -0.18551535   -0.41392160   -0.24335954
     atom   24 type  1   force =     0.12138629   -0.05035930    0.34179635
     atom   25 type  1   force =     0.10537320    0.14392490   -0.03794877
     atom   26 type  1   force =     0.30273404    0.40189356    0.08878564
     atom   27 type  1   force =     0.12321009    0.29525350    0.33381380
     The local contribution  to forces
     atom    1 type  1   force =    -0.58834625   -0.02143856   -0.74841287
     atom    2 type  1   force =     0.30001524   -0.36257295    0.23885535
     atom    3 type  1   force =     0.34986422   -0.30345737   -0.32356036
     atom    4 type  1   force =     0.22051729    0.23553333   -0.28519702
     atom    5 type  1   force =     0.06540911   -0.11310210    0.29282435
     atom    6 type  1   force =     0.21746509    0.05796053   -0.33453868
     atom    7 type  1   force =    -0.01377163    0.36723455    0.19598377
     atom    8 type  1   force =     0.28873787    0.13500665    0.49102258
     atom    9 type  1   force =    -0.62268126    0.20866027    0.45815191
     atom   10 type  1   force =     0.14520145    0.73423944    0.28419759
     atom   11 type  1   force =    -0.27440748   -0.48550870   -0.16444020
     atom   12 type  1   force =     0.19481229   -0.15513451   -0.09655896
     atom   13 type  1   force =     0.36271829   -0.37540159   -0.25363544
     atom   14 type  1   force =    -0.25499297   -0.31421417   -0.51420257
     atom   15 type  1   force =     0.15552230    0.40842328    0.18790420
     atom   16 type  1   force =    -0.16814174    0.01939005   -0.04688800
     atom   17 type  1   force =    -0.48043938   -0.12344648    0.43502387
     atom   18 type  1   force =     0.19343477    0.15041672    0.18739644
     atom   19 type  1   force =    -0.35347146    0.63301871   -0.25321647
     atom   20 type  1   force =     0.58995709   -0.49240964    0.80588085
     atom   21 type  1   force =    -0.14123353    0.44723898    0.00361993
     atom   22 type  1   force =     0.28477526   -0.27004657   -0.08120921
     atom   23 type  1   force =     0.18500678    0.41143561    0.24292087
     atom   24 type  1   force =    -0.11857774    0.05161660   -0.33854198
     atom   25 type  1   force =    -0.10713381   -0.14293345    0.04010316
     atom   26 type  1   force =    -0.30036116   -0.40590435   -0.08598048
     atom   27 type  1   force =    -0.13001463   -0.29460209   -0.33746243
     The core correction contribution to forces
     atom    1 type  1   force =     0.00115080   -0.00004400    0.00173303
     atom    2 type  1   force =    -0.00049052    0.00059449   -0.00094559
     atom    3 type  1   force =    -0.00016758    0.00068955    0.00082863
     atom    4 type  1   force =    -0.00023316   -0.00025805    0.00080853
     atom    5 type  1   force =    -0.00048313   -0.00061897    0.00005465
     atom    6 type  1   force =    -0.00075976   -0.00008596   -0.00046837
     atom    7 type  1   force =     0.00072317   -0.00016155   -0.00065208
     atom    8 type  1   force =    -0.00040653    0.00001062   -0.00087274
     atom    9 type  1   force =     0.00019091   -0.00051162   -0.00021625
     atom   10 type  1   force =     0.00044209   -0.00083577    0.00036664
     atom   11 type  1   force =     0.00008263    0.00073944   -0.00084523
     atom   12 type  1   force =    -0.00092659   -0.00036577    0.00010033
     atom   13 type  1   force =    -0.00018945    0.00053291    0.00086037
     atom   14 type  1   force =     0.00060851    0.00057983    0.00118503
     atom   15 type  1   force =    -0.00026827   -0.00038487   -0.00043768
     atom   16 type  1   force =    -0.00002444    0.00011757   -0.00110309
     atom   17 type  1   force =     0.00044753    0.00060177   -0.00030902
     atom   18 type  1   force =     0.00002385   -0.00065853   -0.00005568
     atom   19 type  1   force =     0.00025790   -0.00131429    0.00045247
     atom   20 type  1   force =    -0.00077990    0.00075015   -0.00140131
     atom   21 type  1   force =    -0.00007106   -0.00013752    0.00045888
     atom   22 type  1   force =    -0.00031169   -0.00045771    0.00039392
     atom   23 type  1   force =    -0.00030227   -0.00024457   -0.00018654
     atom   24 type  1   force =    -0.00034093   -0.00013250    0.00003106
     atom   25 type  1   force =     0.00053301    0.00004528   -0.00051080
     atom   26 type  1   force =     0.00012809    0.00120397   -0.00017036
     atom   27 type  1   force =     0.00114765    0.00043231    0.00103918
     The Hubbard contrib.    to forces
     atom    1 type  1   force =     0.00000000    0.00000000    0.00000000
     atom    2 type  1   force =     0.00000000    0.00000000    0.00000000
     atom    3 type  1   force =     0.00000000    0.00000000    0.00000000
     atom    4 type  1   force =     0.00000000    0.00000000    0.00000000
     atom    5 type  1   force =     0.00000000    0.00000000    0.00000000
     atom    6 type  1   force =     0.00000000    0.00000000    0.00000000
     atom    7 type  1   force =     0.00000000    0.00000000    0.00000000
     atom    8 type  1   force =     0.00000000    0.00000000    0.00000000
     atom    9 type  1   force =     0.00000000    0.00000000    0.00000000
     atom   10 type  1   force =     0.00000000    0.00000000    0.00000000
     atom   11 type  1   force =     0.00000000    0.00000000    0.00000000
     atom   12 type  1   force =     0.00000000    0.00000000    0.00000000
     atom   13 type  1   force =     0.00000000    0.00000000    0.00000000
     atom   14 type  1   force =     0.00000000    0.00000000    0.00000000
     atom   15 type  1   force =     0.00000000    0.00000000    0.00000000
     atom   16 type  1   force =     0.00000000    0.00000000    0.00000000
     atom   17 type  1   force =     0.00000000    0.00000000    0.00000000
     atom   18 type  1   force =     0.00000000    0.00000000    0.00000000
     atom   19 type  1   force =     0.00000000    0.00000000    0.00000000
     atom   20 type  1   force =     0.00000000    0.00000000    0.00000000
     atom   21 type  1   force =     0.00000000    0.00000000    0.00000000
     atom   22 type  1   force =     0.00000000    0.00000000    0.00000000
     atom   23 type  1   force =     0.00000000    0.00000000    0.00000000
     atom   24 type  1   force =     0.00000000    0.00000000    0.00000000
     atom   25 type  1   force =     0.00000000    0.00000000    0.00000000
     atom   26 type  1   force =     0.00000000    0.00000000    0.00000000
     atom   27 type  1   force =     0.00000000    0.00000000    0.00000000
     The SCF correction term to forces
     atom    1 type  1   force =     0.00009708   -0.00013535    0.00031947
     atom    2 type  1   force =    -0.00021280    0.00037179   -0.00005024
     atom    3 type  1   force =     0.00002458    0.00023603    0.00021517
     atom    4 type  1   force =    -0.00017492   -0.00010511    0.00012280
     atom    5 type  1   force =    -0.00005795   -0.00003697   -0.00019464
     atom    6 type  1   force =    -0.00005175   -0.00001240    0.00010923
     atom    7 type  1   force =     0.00028454   -0.00022043    0.00002803
     atom    8 type  1   force =    -0.00004065    0.00018352   -0.00042854
     atom    9 type  1   force =     0.00002386   -0.00023467   -0.00015377
     atom   10 type  1   force =     0.00019052   -0.00038186    0.00005052
     atom   11 type  1   force =     0.00014832    0.00007906   -0.00006172
     atom   12 type  1   force =    -0.00034208    0.00005464   -0.00007183
     atom   13 type  1   force =    -0.00032818    0.00018912    0.00031979
     atom   14 type  1   force =    -0.00003370    0.00016644    0.00009639
     atom   15 type  1   force =    -0.00010593    0.00009339    0.00010425
     atom   16 type  1   force =    -0.00005211   -0.00023440   -0.00004654
     atom   17 type  1   force =     0.00019153    0.00017162   -0.00015883
     atom   18 type  1   force =     0.00013830   -0.00013350   -0.00018954
     atom   19 type  1   force =    -0.00007618   -0.00029185   -0.00010148
     atom   20 type  1   force =     0.00004747    0.00007078    0.00001133
     atom   21 type  1   force =     0.00017557    0.00000475    0.00000638
     atom   22 type  1   force =    -0.00007076   -0.00002360   -0.00000455
     atom   23 type  1   force =     0.00009427   -0.00009419   -0.00027357
     atom   24 type  1   force =    -0.00018376   -0.00010546    0.00026143
     atom   25 type  1   force =    -0.00012658    0.00008272    0.00021497
     atom   26 type  1   force =     0.00000403    0.00028665   -0.00017237
     atom   27 type  1   force =     0.00043961    0.00001090    0.00002786

     Total force =     0.043232     Total SCF correction =     0.001602


     Computing stress (Cartesian axis) and pressure


     negative rho (up, down):  1.662E+00 0.000E+00
          total   stress  (Ry/bohr**3)                   (kbar)     P=       91.57
   0.00062228  -0.00000278   0.00000254           91.54       -0.41        0.37
  -0.00000278   0.00062220   0.00000081           -0.41       91.53        0.12
   0.00000254   0.00000081   0.00062289            0.37        0.12       91.63

     kinetic stress (kbar)  43572.79     -0.17     -0.78
                               -0.17  43573.25     -1.30
                               -0.78     -1.30  43572.71

     local   stress (kbar)  35702.93     10.17    -11.43
                               10.17  35699.06     -9.23
                              -11.43     -9.23  35703.04

     nonloc. stress (kbar) -19543.74      0.36     -0.28
                                0.36 -19543.95     -0.15
                               -0.28     -0.15 -19543.72

     hartree stress (kbar)   7145.64     -2.54      2.85
                               -2.54   7146.77      2.21
                                2.85      2.21   7145.44

     exc-cor stress (kbar)  24893.15     -0.01      0.01
                               -0.01  24893.16      0.00
                                0.01      0.00  24893.15

     corecor stress (kbar) -36207.57     -0.00      0.03
                               -0.00 -36207.59      0.03
                                0.03      0.03 -36207.56

     ewald   stress (kbar) -55471.66     -8.22      9.97
                               -8.22 -55469.17      8.55
                                9.97      8.55 -55471.43

     hubbard stress (kbar)      0.00      0.00      0.00
                                0.00      0.00      0.00
                                0.00      0.00      0.00

     DFT-D   stress (kbar)      0.00      0.00      0.00
                                0.00      0.00      0.00
                                0.00      0.00      0.00

     XDM     stress (kbar)      0.00      0.00      0.00
                                0.00      0.00      0.00
                                0.00      0.00      0.00

     dft-nl  stress (kbar)      0.00      0.00      0.00
                                0.00      0.00      0.00
                                0.00      0.00      0.00

     TS-vdW  stress (kbar)      0.00      0.00      0.00
                                0.00      0.00      0.00
                                0.00      0.00      0.00


                                0.00      0.00      0.00
                                0.00      0.00      0.00


                                0.00      0.00      0.00


     Entering Dynamics;  it =     4   time =  0.00581 pico-seconds