BEGIN_CFG
 Size
  27
 Supercell
  4.72898221  4.728982216  4.728807644
  4.728978518  -4.728806183  -4.728979985
  -4.728806177  4.728979453  -4.728980914
 AtomData:  id type     cartes_x       cartes_y        cartes_z            fx          fy          fz
  1    0       -0.006247388919485811      -0.00025569566074845704      -0.0036805595103657227    -0.00015220616    -0.00457029848    0.00167992407
  2    0       -1.5762722415998254      1.5751478805019534      -1.5735029849360844    -0.00141819118    -4.062259e-05    -5.604889e-05
  3    0       -3.1496535291152368      3.148722427787191      -3.1569567332977106    -0.0038216087200000004    0.00126547081    -0.00039285644
  4    0       1.5752221499330548      -1.5755702352477747      -1.576676018022522    -0.0021154599400000002    0.0012649566    0.00060882464
  5    0       0.0033427717615293062      0.0010696060057495682      -3.1526819170887457    0.00218179303    0.00032035283    -0.0016763245999999999
  6    0       -1.5723916653869516      1.5761397900920682      -4.730454412230555    0.00023962186    -0.00155342841    0.00013472302
  7    0       3.1545829735421984      -3.1499352766897917      -3.1480006319957394    0.0015863378499999998    3.805154e-05    0.0006350493500000001
  8    0       1.5795613833324291      -1.5745656026345645      -4.727904932639481    -0.0009590016499999999    0.00197096693    -0.0011528588199999999
  9    0       -0.004165939101100413      -0.0019340649981138824      -6.304740450555485    3.650891e-05    -0.00212677256    -0.00096568638
  10    0       1.5786299242841502      1.580916172122379      1.5767281958808959    -0.00023859343999999997    -0.0010710994299999999    0.0031294820599999996
  11    0       -0.0007855429693297555      3.1482715405072894      -0.0017187598347185862    -0.00111429307    0.00114360304    0.0025093448
  12    0       -1.5779830561885644      4.728304804097056      -1.5784959520852677    -0.00250985901    0.00321278408    0.0011821687899999998
  13    0       3.153110604214688      -0.003364544169749322      -0.0003621475041850413    -0.00247489273    0.00044427744    -5.759152e-05
  14    0       1.5757460092839393      1.573899011313078      -1.5789184835245804    0.00294025278    -0.00015991931    -0.00386428815
  15    0       0.0021975216765683925      3.1574466277945223      -3.147182218893846    0.0018850938599999998    -0.00018665823    0.0013935091
  16    0       4.727752156892412      -1.5772193735898683      -1.5759087776871048    3.59947e-06    -0.00162078992    -0.0021992761699999998
  17    0       3.1504938103007247      -0.0018888352104613482      -3.1502612790728683    0.00097134269    0.00320969882    -0.00195348379
  18    0       1.5803628403968433      1.5778699416827484      -4.730618207210203    0.00429982402    -0.00149223742    6.170519999999999e-06
  19    0       3.149619521109842      3.1585315626733013      3.147359457374275    0.00046638846999999995    -0.00285129445    0.00383292134
  20    0       1.5799813675864436      4.72621097854969      1.583686273394872    -0.0013184344399999998    -1.8511559999999998e-05    -0.00051318158
  21    0       -0.0011153415555953394      6.307610454940747      -0.0002700170248086664    -0.004213436740000001    0.00287134864    0.00191491804
  22    0       4.730658279954419      1.5741713485260054      1.5740612273174164    -0.00109886677    0.0005142100000000001    0.00176322609
  23    0       3.155034292784685      3.1576364926708584      9.297209606784484e-05    0.00207483735    0.00116931354    -0.0025216858399999998
  24    0       1.574461887524874      4.730174178366255      -1.574692678414908    0.00146601271    -0.00066641616    -0.00086438701
  25    0       6.302412835417333      0.0008210726244271226      0.003655201135438038    0.0021421988599999997    -0.00185732652    0.0005106105299999999
  26    0       4.7245108513789535      1.5746792584897953      -1.5784791663155338    -0.00150406425    0.00354085006    -0.0024080454299999997
  27    0       3.153324481042306      3.149509853928826      -3.156456293881336    0.00264509624    -0.00274999508    -0.00067670036
 Energy
  -58385.342046904
 PlusStress:  xx          yy          zz          yz          xz          xy
  62.43406068853897    62.43406068853897    62.44726167398955    0.0    0.0    0.0
END_CFG

BEGIN_CFG
 Size
  27
 Supercell
  4.729422179  4.729422172  4.728814109
  4.729409305  -4.728809013  -4.729414395
  -4.728809019  4.729412631  -4.729417727
 AtomData:  id type     cartes_x       cartes_y        cartes_z            fx          fy          fz
  1    0       -0.012481558330857501      -0.0005111544132773414      -0.007351031241816774    0.13707193128    0.00329042979    0.10293815727000001
  2    0       -1.5762805531360156      1.574119214278056      -1.5708288892329432    -0.03789881963    0.057705674619999994    -0.04536000673
  3    0       -3.1467797326153      3.1450889478826736      -3.1615417378257935    -0.08560773763999999    0.08457674659    0.09347875011000001
  4    0       1.5742596383042806      -1.5748766850871811      -1.57717050866035    -0.02103993057    -0.0407151478    -0.00312022628
  5    0       0.006767386601447711      0.0022286383284242373      -3.1530050719245137    -0.0362980839    0.03650222527    -0.04389039455
  6    0       -1.5684342952886405      1.5761841003969095      -4.732352159493022    -0.04292522238    0.00834151462    0.12464398978999999
  7    0       3.156794685631265      -3.1473453840002845      -3.1436448183628847    -0.06251045286    -0.106698575    -0.07550916745
  8    0       1.5830175417513936      -1.5727828408781692      -4.72727084604888    -0.08148994395999999    -0.05385989803    -0.06099353336
  9    0       -0.00814605292877868      -0.0036950214035260665      -6.304763225249044    0.16004940513    0.02002076635    -0.09165947513
  10    0       1.581072729749291      1.5856343353700695      1.5771813488853659    -0.06743452781999999    -0.17883041116999998    -0.07975448521
  11    0       -0.0014781526978575599      3.1441938169306614      -0.003512126148235817    0.061290232529999995    0.14011399764000002    0.11230037874
  12    0       -1.5796091364269833      4.728070804435944      -1.5808911086686939    0.02231465716    0.06270379581999999    0.052300299099999996
  13    0       3.1538504173047093      -0.006632424173332737      -0.0008096381700646062    -0.07568554148000001    0.09972845844999999    -0.00208409313
  14    0       1.5753983757914936      1.5717095229676104      -1.5817335715488592    0.01956877576    0.06747206515    0.0742879187
  15    0       0.0045645236360352115      3.162601003304492      -3.1420984886986787    -0.02946577563    -0.15519937641    -0.11924889846999999
  16    0       4.726961668183123      -1.5780826743063474      -1.5757147916565675    0.03422324655    0.01352423721    0.060948282879999996
  17    0       3.14872044010495      -0.0036041647560129952      -3.1482539684424466    0.11397464650000001    0.00989494303    -0.0986871832
  18    0       1.5847060856346928      1.5797307018162983      -4.7327775019278455    -0.09731732776    -0.00058928466    -0.00301172797
  19    0       3.1468873999911176      3.1646877605169985      3.1421946061526587    0.09904301652    -0.1447192624    0.10366679284000001
  20    0       1.5838569398777314      4.723888567152264      1.591002251756322    -0.12179732323    0.10647695049    -0.18213883831
  21    0       -0.002051724777135      6.3104827916178525      -0.0007160501038225853    0.04981769322    -0.12712865251    -0.04673603269
  22    0       4.732767839849803      1.5722622937332444      1.571774075865666    -0.04822055696    0.13602705656    0.04087146764
  23    0       3.1577877861399117      3.162982918599499      9.211825444888078e-06    -0.0483203137    -0.14821126251    -0.05705622739
  24    0       1.5729205813117226      4.731888221323061      -1.5733696623579239    0.0552518645    -0.02181021715    0.05208535932
  25    0       6.300102345411459      0.001817402213929583      0.007137748487425445    0.03659169781    0.01360496818    -0.02560611537
  26    0       4.720573656275037      1.573352365572406      -1.5809416249108936    0.11307272215999999    0.020642960449999997    0.05802448482
  27    0       3.1544533505979873      3.1468390516319675      -3.160714540245494    -0.04625730318    0.09713478320999999    0.05931000982
 Energy
  -58385.340564368
 PlusStress:  xx          yy          zz          yz          xz          xy
  61.81190908317108    61.81190908317108    61.81851080367553    0.013203441008901225    0.033008602522253065    -0.033008602522253065
END_CFG

BEGIN_CFG
 Size
  27
 Supercell
  4.730122366  4.730122241  4.728825066
  4.730094987  -4.728814092  -4.730105836
  -4.728814217  4.730102388  -4.730113362
 AtomData:  id type     cartes_x       cartes_y        cartes_z            fx          fy          fz
  1    0       -0.01868963436396809      -0.0007662361576875843      -0.01100100840205992    0.27058141568    0.005560152729999999    0.20909681176999997
  2    0       -1.5762976100658446      1.5731875010647889      -1.5682497853804032    -0.07881862300999999    0.11911880334000001    -0.09248941007
  3    0       -3.1439238959682116      3.1416432223961923      -3.1662808980678476    -0.17011146641    0.17038142666    0.19133188469
  4    0       1.5733777662052382      -1.5741921487081802      -1.5777512396573583    -0.04337464192    -0.08444665146    -0.00556992272
  5    0       0.01026918602975857      0.0034799156003126885      -3.153509225338742    -0.075383186    0.07303170367    -0.0897039345
  6    0       -1.5644013051732029      1.5764006466998368      -4.734484123200719    -0.08397717773    0.017030635199999998    0.2478749305
  7    0       3.159164329876108      -3.144778164741925      -3.139475066511296    -0.12314249659    -0.21687012433999997    -0.1523552809
  8    0       1.586627097286388      -1.5709261676316315      -4.726906869099649    -0.16409366678    -0.10592571736999999    -0.12559219303000002
  9    0       -0.011926634422434024      -0.005283114723035887      -6.305147733983251    0.32337175691000003    0.03861819942    -0.18550382855
  10    0       1.5835897765669853      1.5904043019908771      1.5776202922159974    -0.13200336331    -0.36125412182    -0.1565975134
  11    0       -0.002072747184279855      3.1403155121957225      -0.005368239600747726    0.12518853818    0.28107489915    0.22317331052
  12    0       -1.5811459137007366      4.728106870789468      -1.583447079116537    0.043271285709999996    0.12582461595    0.10517857023999999
  13    0       3.1547469817131377      -0.009795229138648144      -0.0013411927664123552    -0.1509463455    0.19795131002000002    -0.00010849831000000001
  14    0       1.5752253567711387      1.5697047121340941      -1.5847043151220468    0.03831481552    0.13601060184    0.15168783632
  15    0       0.007095653793984802      3.1679825091808054      -3.137294532133944    -0.0630267197    -0.3074153064    -0.23693202749
  16    0       4.726434323674857      -1.5788581883906794      -1.5756788811895135    0.06806906296    0.028321658379999996    0.11813563382
  17    0       3.1472252855151495      -0.00514721601631285      -3.1465217250895066    0.23211799347    0.02050823743    -0.19769214818
  18    0       1.5892859153354628      1.5818478044320747      -4.735280616627058    -0.19437497947    -0.0037434487999999998    -0.00974839318
  19    0       3.144348300814754      3.1709893187977642      3.1370527907465666    0.19617728552    -0.29307501791999996    0.2112271838
  20    0       1.5878811995301398      4.721846360721875      1.5981999557193647    -0.24268295213000002    0.22160188475999998    -0.36394549696
  21    0       -0.002806173209583651      6.313674686171103      -0.0013410591990576926    0.10203828977    -0.25537468334999996    -0.09513090684
  22    0       4.735126445262358      1.5705521068014234      1.5694120622167766    -0.09742325502    0.26705033560999997    0.08167403113999999
  23    0       3.160789893919217      3.1685590943520765      -0.00025545321718523084    -0.09719443157    -0.29599058862    -0.11787852882
  24    0       1.5716467632593214      4.7339417084697395      -1.5722912329157557    0.1105397237    -0.04263417952    0.10591286212
  25    0       6.298141835560865      0.0029882250218740128      0.010447584280192872    0.07171532607    0.029170619090000002    -0.04964543287
  26    0       4.717000724241709      1.572286568777317      -1.5836472206926133    0.22508051541000001    0.04059893634    0.1158206604
  27    0       3.1559153003670253      3.144530235275545      -3.165302376340209    -0.08991167534    0.19487582000999998    0.11777877208000001
 Energy
  -58385.334693112
 PlusStress:  xx          yy          zz          yz          xz          xy
  61.28211463646362    61.27551096031745    61.3085293410483    0.03962205687702389    0.11226249448490103    -0.12546984677724232
END_CFG

